 written on 17Jan2025 at 02:03:37 
          15
          71
    2    1    1    2    1    2    1    1    1    2    1    1    1    1    1
    1    1    1    1    1    1    1    1    1    1    1    2    1    2    1
    1    1    1    2    1    1    1    2    1    1    1    1    2    1    2
    1    1    1    1    1    1    1    1    1    1    1    1    1    1    1
    1    2    1    1    1    2    1    2    1    1    2
   -2   -2    2    1    1   -0.090251    0.000000
   -2   -2    2    2    1   -0.025172   -0.008369
   -2   -2    2    3    1    0.000394   -0.000970
   -2   -2    2    4    1    0.012557   -0.002164
   -2   -2    2    5    1   -0.009260    0.009885
   -2   -2    2    6    1   -0.047861   -0.090132
   -2   -2    2    7    1    0.118476    0.043068
   -2   -2    2    8    1   -0.015648   -0.092821
   -2   -2    2    9    1   -0.022676    0.059063
   -2   -2    2   10    1    0.003590   -0.103476
   -2   -2    2   11    1    0.109706   -0.050737
   -2   -2    2   12    1    0.021728    0.009821
   -2   -2    2   13    1    0.031913    0.009636
   -2   -2    2   14    1   -0.002863   -0.000715
   -2   -2    2   15    1   -0.017633   -0.002714
   -2   -2    2    1    2   -0.025172    0.008369
   -2   -2    2    2    2    0.001297   -0.000000
   -2   -2    2    3    2   -0.004925    0.002655
   -2   -2    2    4    2   -0.024035   -0.007606
   -2   -2    2    5    2   -0.026284   -0.000207
   -2   -2    2    6    2   -0.051477    0.041405
   -2   -2    2    7    2   -0.005347   -0.072302
   -2   -2    2    8    2    0.148565   -0.013057
   -2   -2    2    9    2   -0.036485    0.028193
   -2   -2    2   10    2   -0.109577    0.000649
   -2   -2    2   11    2    0.013431    0.035491
   -2   -2    2   12    2    0.009132    0.006812
   -2   -2    2   13    2    0.005254   -0.007222
   -2   -2    2   14    2   -0.014812   -0.012850
   -2   -2    2   15    2   -0.004309    0.004499
   -2   -2    2    1    3    0.000394    0.000970
   -2   -2    2    2    3   -0.004925   -0.002655
   -2   -2    2    3    3   -0.001469    0.000000
   -2   -2    2    4    3   -0.028304    0.012511
   -2   -2    2    5    3    0.015422   -0.004000
   -2   -2    2    6    3   -0.015398   -0.087059
   -2   -2    2    7    3   -0.012278    0.080741
   -2   -2    2    8    3    0.025352    0.042257
   -2   -2    2    9    3   -0.003754    0.014905
   -2   -2    2   10    3   -0.024526   -0.071466
   -2   -2    2   11    3   -0.086276   -0.075993
   -2   -2    2   12    3    0.022812   -0.016256
   -2   -2    2   13    3    0.006170   -0.000864
   -2   -2    2   14    3   -0.003612   -0.005196
   -2   -2    2   15    3   -0.002872   -0.007947
   -2   -2    2    1    4    0.012557    0.002164
   -2   -2    2    2    4   -0.024035    0.007606
   -2   -2    2    3    4   -0.028304   -0.012511
   -2   -2    2    4    4    0.001863   -0.000000
   -2   -2    2    5    4   -0.019567    0.000633
   -2   -2    2    6    4    0.007354   -0.012748
   -2   -2    2    7    4    0.118279    0.038579
   -2   -2    2    8    4    0.009027    0.013132
   -2   -2    2    9    4    0.045559    0.016514
   -2   -2    2   10    4   -0.052194   -0.008431
   -2   -2    2   11    4   -0.183441   -0.055768
   -2   -2    2   12    4   -0.050350    0.026106
   -2   -2    2   13    4   -0.000741   -0.005578
   -2   -2    2   14    4   -0.010036   -0.000501
   -2   -2    2   15    4    0.005169   -0.011313
   -2   -2    2    1    5   -0.009260   -0.009885
   -2   -2    2    2    5   -0.026284    0.000207
   -2   -2    2    3    5    0.015422    0.004000
   -2   -2    2    4    5   -0.019567   -0.000633
   -2   -2    2    5    5   -0.018551   -0.000000
   -2   -2    2    6    5    0.030828    0.022477
   -2   -2    2    7    5   -0.111799   -0.028323
   -2   -2    2    8    5    0.094156    0.007548
   -2   -2    2    9    5   -0.013463    0.000485
   -2   -2    2   10    5   -0.020568    0.004197
   -2   -2    2   11    5    0.037969    0.041986
   -2   -2    2   12    5    0.011078   -0.045381
   -2   -2    2   13    5    0.002353    0.001694
   -2   -2    2   14    5   -0.018248   -0.001941
   -2   -2    2   15    5    0.003520    0.001788
   -2   -2    2    1    6   -0.047861    0.090132
   -2   -2    2    2    6   -0.051477   -0.041405
   -2   -2    2    3    6   -0.015398    0.087059
   -2   -2    2    4    6    0.007354    0.012748
   -2   -2    2    5    6    0.030828   -0.022477
   -2   -2    2    6    6   -0.423147    0.000000
   -2   -2    2    7    6    0.759821   -0.064508
   -2   -2    2    8    6    0.314081   -0.366536
   -2   -2    2    9    6    0.112310    0.133709
   -2   -2    2   10    6   -0.287768   -0.196997
   -2   -2    2   11    6    0.306806   -0.123278
   -2   -2    2   12    6    0.458135    0.323122
   -2   -2    2   13    6    0.028797    0.002358
   -2   -2    2   14    6    0.097726   -0.028038
   -2   -2    2   15    6    0.005245   -0.011801
   -2   -2    2    1    7    0.118476   -0.043068
   -2   -2    2    2    7   -0.005347    0.072302
   -2   -2    2    3    7   -0.012278   -0.080741
   -2   -2    2    4    7    0.118279   -0.038579
   -2   -2    2    5    7   -0.111799    0.028323
   -2   -2    2    6    7    0.759821    0.064508
   -2   -2    2    7    7    0.152014    0.000000
   -2   -2    2    8    7    0.013762   -0.409555
   -2   -2    2    9    7   -0.108825    0.119459
   -2   -2    2   10    7    0.040276    0.266157
   -2   -2    2   11    7   -0.330847   -0.253152
   -2   -2    2   12    7   -0.315408    0.205802
   -2   -2    2   13    7   -0.106077    0.045061
   -2   -2    2   14    7   -0.013779    0.051715
   -2   -2    2   15    7    0.104855    0.014452
   -2   -2    2    1    8   -0.015648    0.092821
   -2   -2    2    2    8    0.148565    0.013057
   -2   -2    2    3    8    0.025352   -0.042257
   -2   -2    2    4    8    0.009027   -0.013132
   -2   -2    2    5    8    0.094156   -0.007548
   -2   -2    2    6    8    0.314081    0.366536
   -2   -2    2    7    8    0.013762    0.409555
   -2   -2    2    8    8    0.939457   -0.000000
   -2   -2    2    9    8    0.161837   -0.025127
   -2   -2    2   10    8    0.391045    0.038040
   -2   -2    2   11    8    0.206796   -0.100586
   -2   -2    2   12    8    0.210750   -0.158651
   -2   -2    2   13    8   -0.065717    0.007347
   -2   -2    2   14    8   -0.029503   -0.034525
   -2   -2    2   15    8    0.088182   -0.009588
   -2   -2    2    1    9   -0.022676   -0.059063
   -2   -2    2    2    9   -0.036485   -0.028193
   -2   -2    2    3    9   -0.003754   -0.014905
   -2   -2    2    4    9    0.045559   -0.016514
   -2   -2    2    5    9   -0.013463   -0.000485
   -2   -2    2    6    9    0.112310   -0.133709
   -2   -2    2    7    9   -0.108825   -0.119459
   -2   -2    2    8    9    0.161837    0.025127
   -2   -2    2    9    9    0.070114   -0.000000
   -2   -2    2   10    9    0.114303   -0.235161
   -2   -2    2   11    9   -0.089045   -0.092462
   -2   -2    2   12    9    0.129009   -0.166266
   -2   -2    2   13    9   -0.043262    0.022573
   -2   -2    2   14    9   -0.058875   -0.005504
   -2   -2    2   15    9   -0.011198   -0.036645
   -2   -2    2    1   10    0.003590    0.103476
   -2   -2    2    2   10   -0.109577   -0.000649
   -2   -2    2    3   10   -0.024526    0.071466
   -2   -2    2    4   10   -0.052194    0.008431
   -2   -2    2    5   10   -0.020568   -0.004197
   -2   -2    2    6   10   -0.287768    0.196997
   -2   -2    2    7   10    0.040276   -0.266157
   -2   -2    2    8   10    0.391045   -0.038040
   -2   -2    2    9   10    0.114303    0.235161
   -2   -2    2   10   10   -0.127856   -0.000000
   -2   -2    2   11   10    0.177761    0.207719
   -2   -2    2   12   10   -0.199010   -0.075384
   -2   -2    2   13   10    0.052082   -0.017565
   -2   -2    2   14   10    0.040970   -0.048210
   -2   -2    2   15   10   -0.047237   -0.025815
   -2   -2    2    1   11    0.109706    0.050737
   -2   -2    2    2   11    0.013431   -0.035491
   -2   -2    2    3   11   -0.086276    0.075993
   -2   -2    2    4   11   -0.183441    0.055768
   -2   -2    2    5   11    0.037969   -0.041986
   -2   -2    2    6   11    0.306806    0.123278
   -2   -2    2    7   11   -0.330847    0.253152
   -2   -2    2    8   11    0.206796    0.100586
   -2   -2    2    9   11   -0.089045    0.092462
   -2   -2    2   10   11    0.177761   -0.207719
   -2   -2    2   11   11   -0.198812   -0.000000
   -2   -2    2   12   11    0.233769   -0.435449
   -2   -2    2   13   11   -0.086201   -0.024085
   -2   -2    2   14   11    0.037844    0.026922
   -2   -2    2   15   11   -0.005979   -0.032638
   -2   -2    2    1   12    0.021728   -0.009821
   -2   -2    2    2   12    0.009132   -0.006812
   -2   -2    2    3   12    0.022812    0.016256
   -2   -2    2    4   12   -0.050350   -0.026106
   -2   -2    2    5   12    0.011078    0.045381
   -2   -2    2    6   12    0.458135   -0.323122
   -2   -2    2    7   12   -0.315408   -0.205802
   -2   -2    2    8   12    0.210750    0.158651
   -2   -2    2    9   12    0.129009    0.166266
   -2   -2    2   10   12   -0.199010    0.075384
   -2   -2    2   11   12    0.233769    0.435449
   -2   -2    2   12   12    0.087198   -0.000000
   -2   -2    2   13   12   -0.051907   -0.014131
   -2   -2    2   14   12   -0.030166   -0.020827
   -2   -2    2   15   12   -0.034218    0.000855
   -2   -2    2    1   13    0.031913   -0.009636
   -2   -2    2    2   13    0.005254    0.007222
   -2   -2    2    3   13    0.006170    0.000864
   -2   -2    2    4   13   -0.000741    0.005578
   -2   -2    2    5   13    0.002353   -0.001694
   -2   -2    2    6   13    0.028797   -0.002358
   -2   -2    2    7   13   -0.106077   -0.045061
   -2   -2    2    8   13   -0.065717   -0.007347
   -2   -2    2    9   13   -0.043262   -0.022573
   -2   -2    2   10   13    0.052082    0.017565
   -2   -2    2   11   13   -0.086201    0.024085
   -2   -2    2   12   13   -0.051907    0.014131
   -2   -2    2   13   13   -0.000875    0.000000
   -2   -2    2   14   13    0.001052    0.000106
   -2   -2    2   15   13    0.001932   -0.000390
   -2   -2    2    1   14   -0.002863    0.000715
   -2   -2    2    2   14   -0.014812    0.012850
   -2   -2    2    3   14   -0.003612    0.005196
   -2   -2    2    4   14   -0.010036    0.000501
   -2   -2    2    5   14   -0.018248    0.001941
   -2   -2    2    6   14    0.097726    0.028038
   -2   -2    2    7   14   -0.013779   -0.051715
   -2   -2    2    8   14   -0.029503    0.034525
   -2   -2    2    9   14   -0.058875    0.005504
   -2   -2    2   10   14    0.040970    0.048210
   -2   -2    2   11   14    0.037844   -0.026922
   -2   -2    2   12   14   -0.030166    0.020827
   -2   -2    2   13   14    0.001052   -0.000106
   -2   -2    2   14   14    0.001657   -0.000000
   -2   -2    2   15   14    0.000355    0.002587
   -2   -2    2    1   15   -0.017633    0.002714
   -2   -2    2    2   15   -0.004309   -0.004499
   -2   -2    2    3   15   -0.002872    0.007947
   -2   -2    2    4   15    0.005169    0.011313
   -2   -2    2    5   15    0.003520   -0.001788
   -2   -2    2    6   15    0.005245    0.011801
   -2   -2    2    7   15    0.104855   -0.014452
   -2   -2    2    8   15    0.088182    0.009588
   -2   -2    2    9   15   -0.011198    0.036645
   -2   -2    2   10   15   -0.047237    0.025815
   -2   -2    2   11   15   -0.005979    0.032638
   -2   -2    2   12   15   -0.034218   -0.000855
   -2   -2    2   13   15    0.001932    0.000390
   -2   -2    2   14   15    0.000355   -0.002587
   -2   -2    2   15   15    0.003341    0.000000
   -2   -1    1    1    1    0.007591   -0.018959
   -2   -1    1    2    1    0.014250    0.016712
   -2   -1    1    3    1    0.013105   -0.008832
   -2   -1    1    4    1   -0.020845    0.012532
   -2   -1    1    5    1   -0.024468    0.007111
   -2   -1    1    6    1   -0.007480   -0.041152
   -2   -1    1    7    1    0.152170    0.052120
   -2   -1    1    8    1   -0.015199    0.030881
   -2   -1    1    9    1   -0.014479    0.018169
   -2   -1    1   10    1   -0.057359    0.093045
   -2   -1    1   11    1    0.112989    0.065845
   -2   -1    1   12    1   -0.070465    0.087406
   -2   -1    1   13    1   -0.017425    0.006925
   -2   -1    1   14    1   -0.018840    0.002861
   -2   -1    1   15    1   -0.011129    0.005585
   -2   -1    1    1    2   -0.010419   -0.003910
   -2   -1    1    2    2   -0.044225   -0.002154
   -2   -1    1    3    2    0.007085    0.018521
   -2   -1    1    4    2    0.007181    0.002977
   -2   -1    1    5    2   -0.045416   -0.002910
   -2   -1    1    6    2    0.026331   -0.022285
   -2   -1    1    7    2   -0.019684   -0.075637
   -2   -1    1    8    2   -0.066502   -0.035161
   -2   -1    1    9    2   -0.021087   -0.003073
   -2   -1    1   10    2   -0.075244   -0.020042
   -2   -1    1   11    2   -0.022822    0.025685
   -2   -1    1   12    2   -0.029451    0.010936
   -2   -1    1   13    2   -0.001158    0.003175
   -2   -1    1   14    2    0.014611   -0.004726
   -2   -1    1   15    2   -0.013818   -0.000159
   -2   -1    1    1    3   -0.004580   -0.031419
   -2   -1    1    2    3   -0.000438    0.013575
   -2   -1    1    3    3    0.017680   -0.008280
   -2   -1    1    4    3   -0.007528    0.007423
   -2   -1    1    5    3   -0.007187    0.005373
   -2   -1    1    6    3   -0.024944   -0.036468
   -2   -1    1    7    3   -0.179523   -0.048482
   -2   -1    1    8    3   -0.092734    0.032786
   -2   -1    1    9    3   -0.023599    0.007136
   -2   -1    1   10    3    0.026185    0.045102
   -2   -1    1   11    3    0.030368   -0.006163
   -2   -1    1   12    3   -0.021523   -0.031204
   -2   -1    1   13    3   -0.004796   -0.009256
   -2   -1    1   14    3   -0.022168    0.003695
   -2   -1    1   15    3   -0.022644    0.002070
   -2   -1    1    1    4   -0.049424    0.004472
   -2   -1    1    2    4   -0.000193    0.022385
   -2   -1    1    3    4   -0.020433   -0.008557
   -2   -1    1    4    4    0.041270    0.002440
   -2   -1    1    5    4   -0.021697    0.005756
   -2   -1    1    6    4   -0.074690    0.008555
   -2   -1    1    7    4    0.048367   -0.004665
   -2   -1    1    8    4   -0.035708    0.040461
   -2   -1    1    9    4   -0.051050   -0.063252
   -2   -1    1   10    4    0.019774    0.061053
   -2   -1    1   11    4   -0.089089   -0.109526
   -2   -1    1   12    4    0.020792   -0.072006
   -2   -1    1   13    4    0.011574   -0.003173
   -2   -1    1   14    4   -0.024197   -0.005354
   -2   -1    1   15    4   -0.012620    0.010643
   -2   -1    1    1    5    0.001376   -0.006686
   -2   -1    1    2    5   -0.047258    0.009120
   -2   -1    1    3    5   -0.001984    0.011104
   -2   -1    1    4    5   -0.007847    0.012062
   -2   -1    1    5    5   -0.050474   -0.005854
   -2   -1    1    6    5   -0.025286   -0.033296
   -2   -1    1    7    5   -0.078171   -0.116894
   -2   -1    1    8    5   -0.125838   -0.055857
   -2   -1    1    9    5   -0.031167    0.023921
   -2   -1    1   10    5   -0.006059    0.032296
   -2   -1    1   11    5   -0.013796    0.025947
   -2   -1    1   12    5   -0.049261    0.031318
   -2   -1    1   13    5   -0.039078   -0.008220
   -2   -1    1   14    5   -0.013726    0.003562
   -2   -1    1   15    5   -0.022106   -0.003212
   -2   -1    1    1    6   -0.269880   -0.106032
   -2   -1    1    2    6   -0.067005    0.025164
   -2   -1    1    3    6    0.022263   -0.061718
   -2   -1    1    4    6   -0.004852    0.001807
   -2   -1    1    5    6   -0.083580    0.015418
   -2   -1    1    6    6   -0.543259   -0.289719
   -2   -1    1    7    6    1.015717    0.269458
   -2   -1    1    8    6    0.187695    0.417230
   -2   -1    1    9    6   -0.274021   -0.100539
   -2   -1    1   10    6   -0.600612    0.111475
   -2   -1    1   11    6    0.219036   -0.486484
   -2   -1    1   12    6   -0.148420    0.491753
   -2   -1    1   13    6    0.033986    0.053333
   -2   -1    1   14    6    0.000602    0.021746
   -2   -1    1   15    6   -0.139294   -0.025289
   -2   -1    1    1    7   -0.130083    0.119583
   -2   -1    1    2    7   -0.032476    0.090552
   -2   -1    1    3    7   -0.029524   -0.006663
   -2   -1    1    4    7    0.012958   -0.005127
   -2   -1    1    5    7    0.010225    0.012865
   -2   -1    1    6    7   -0.094168   -0.105733
   -2   -1    1    7    7    0.836988    0.544515
   -2   -1    1    8    7    0.124290   -0.222860
   -2   -1    1    9    7   -0.267083    0.008733
   -2   -1    1   10    7   -0.590402   -0.081853
   -2   -1    1   11    7   -0.157130   -0.193679
   -2   -1    1   12    7   -0.374631    0.217981
   -2   -1    1   13    7    0.090445    0.053361
   -2   -1    1   14    7   -0.014009    0.005935
   -2   -1    1   15    7    0.106331   -0.072433
   -2   -1    1    1    8   -0.054310   -0.046810
   -2   -1    1    2    8   -0.080518    0.012669
   -2   -1    1    3    8    0.002006   -0.003844
   -2   -1    1    4    8    0.022707   -0.009028
   -2   -1    1    5    8    0.000500   -0.012678
   -2   -1    1    6    8    0.056788   -0.531828
   -2   -1    1    7    8   -0.160643    0.126789
   -2   -1    1    8    8   -0.483893    0.223584
   -2   -1    1    9    8    0.219779   -0.138384
   -2   -1    1   10    8   -0.065044   -0.196383
   -2   -1    1   11    8   -0.237937   -0.181250
   -2   -1    1   12    8    0.345099    0.151194
   -2   -1    1   13    8   -0.102580    0.059146
   -2   -1    1   14    8   -0.054322   -0.005058
   -2   -1    1   15    8    0.025740    0.071119
   -2   -1    1    1    9    0.028417   -0.045593
   -2   -1    1    2    9   -0.002011    0.023435
   -2   -1    1    3    9    0.059792   -0.025783
   -2   -1    1    4    9   -0.007458    0.026676
   -2   -1    1    5    9   -0.029027    0.007270
   -2   -1    1    6    9   -0.318875    0.209218
   -2   -1    1    7    9   -0.393728    0.041331
   -2   -1    1    8    9   -0.260509   -0.237932
   -2   -1    1    9    9   -0.112625    0.003062
   -2   -1    1   10    9    0.002779    0.139790
   -2   -1    1   11    9    0.066113    0.092804
   -2   -1    1   12    9    0.139703    0.037628
   -2   -1    1   13    9    0.106659   -0.006321
   -2   -1    1   14    9   -0.036593    0.086016
   -2   -1    1   15    9   -0.050513    0.008673
   -2   -1    1    1   10   -0.030127   -0.000151
   -2   -1    1    2   10   -0.129337   -0.028317
   -2   -1    1    3   10   -0.006311    0.032879
   -2   -1    1    4   10    0.049825   -0.103853
   -2   -1    1    5   10   -0.189079    0.001735
   -2   -1    1    6   10    0.113093   -0.027321
   -2   -1    1    7   10    0.213066   -0.001001
   -2   -1    1    8   10   -0.313863   -0.001318
   -2   -1    1    9   10    0.083415    0.004167
   -2   -1    1   10   10   -0.647182   -0.030339
   -2   -1    1   11   10    0.484306   -0.260922
   -2   -1    1   12   10   -0.146579   -0.299566
   -2   -1    1   13   10    0.046727   -0.061621
   -2   -1    1   14   10    0.081157   -0.048654
   -2   -1    1   15   10   -0.082405   -0.022243
   -2   -1    1    1   11    0.005291    0.078641
   -2   -1    1    2   11    0.057009   -0.099319
   -2   -1    1    3   11    0.016485    0.105957
   -2   -1    1    4   11    0.026305    0.020967
   -2   -1    1    5   11    0.000195   -0.090087
   -2   -1    1    6   11    0.069924   -0.248324
   -2   -1    1    7   11    0.671358    0.219753
   -2   -1    1    8   11    0.014604   -0.024708
   -2   -1    1    9   11   -0.200781    0.382957
   -2   -1    1   10   11    0.269275   -0.250151
   -2   -1    1   11   11    0.578404   -0.248197
   -2   -1    1   12   11   -0.250982   -0.010665
   -2   -1    1   13   11    0.176764    0.202272
   -2   -1    1   14   11   -0.107432    0.125571
   -2   -1    1   15   11    0.199201   -0.004064
   -2   -1    1    1   12    0.078404    0.061767
   -2   -1    1    2   12   -0.001327   -0.016737
   -2   -1    1    3   12    0.001544    0.059406
   -2   -1    1    4   12   -0.083123    0.005114
   -2   -1    1    5   12   -0.006187   -0.040741
   -2   -1    1    6   12    0.263552   -0.113737
   -2   -1    1    7   12   -0.462080   -0.425296
   -2   -1    1    8   12   -0.147972   -0.526899
   -2   -1    1    9   12    0.133804    0.239102
   -2   -1    1   10   12   -0.382255    0.078833
   -2   -1    1   11   12    0.099660    0.060168
   -2   -1    1   12   12    0.379635   -0.165433
   -2   -1    1   13   12   -0.066468   -0.034481
   -2   -1    1   14   12    0.081871    0.006126
   -2   -1    1   15   12    0.063725   -0.034913
   -2   -1    1    1   13   -0.004349   -0.003236
   -2   -1    1    2   13    0.016786   -0.002102
   -2   -1    1    3   13   -0.024250   -0.005717
   -2   -1    1    4   13   -0.031916   -0.012951
   -2   -1    1    5   13    0.011774    0.004220
   -2   -1    1    6   13   -0.077613   -0.124223
   -2   -1    1    7   13    0.098222   -0.086517
   -2   -1    1    8   13   -0.028053    0.103365
   -2   -1    1    9   13    0.037899   -0.024335
   -2   -1    1   10   13   -0.125138    0.058982
   -2   -1    1   11   13   -0.012596   -0.021382
   -2   -1    1   12   13    0.120286    0.040739
   -2   -1    1   13   13    0.001809   -0.006973
   -2   -1    1   14   13    0.001678   -0.005764
   -2   -1    1   15   13   -0.000289    0.000371
   -2   -1    1    1   14    0.033207   -0.010829
   -2   -1    1    2   14    0.004460    0.016103
   -2   -1    1    3   14    0.004335   -0.009930
   -2   -1    1    4   14   -0.018701   -0.006080
   -2   -1    1    5   14    0.014379    0.007162
   -2   -1    1    6   14    0.127759   -0.068906
   -2   -1    1    7   14   -0.456733    0.011669
   -2   -1    1    8   14    0.122153   -0.046139
   -2   -1    1    9   14    0.016374   -0.008209
   -2   -1    1   10   14    0.182408    0.117300
   -2   -1    1   11   14    0.000207   -0.033172
   -2   -1    1   12   14    0.115485   -0.019962
   -2   -1    1   13   14    0.000680    0.001275
   -2   -1    1   14   14   -0.004262    0.002515
   -2   -1    1   15   14   -0.001348   -0.000066
   -2   -1    1    1   15   -0.005474    0.011241
   -2   -1    1    2   15   -0.009946    0.008238
   -2   -1    1    3   15    0.017774    0.007680
   -2   -1    1    4   15    0.012812    0.009822
   -2   -1    1    5   15   -0.003995    0.013706
   -2   -1    1    6   15   -0.083839   -0.043632
   -2   -1    1    7   15   -0.124788   -0.005812
   -2   -1    1    8   15   -0.069656    0.031318
   -2   -1    1    9   15   -0.026781   -0.043342
   -2   -1    1   10   15    0.050564    0.037128
   -2   -1    1   11   15   -0.040646    0.009743
   -2   -1    1   12   15   -0.048470    0.001770
   -2   -1    1   13   15   -0.004965   -0.005700
   -2   -1    1   14   15   -0.001077    0.001170
   -2   -1    1   15   15   -0.001551   -0.000209
   -2   -1    2    1    1   -0.012502    0.004226
   -2   -1    2    2    1   -0.058341    0.010033
   -2   -1    2    3    1    0.017480   -0.013974
   -2   -1    2    4    1   -0.014439    0.020861
   -2   -1    2    5    1   -0.043059   -0.000749
   -2   -1    2    6    1   -0.002329   -0.092669
   -2   -1    2    7    1    0.103988   -0.046613
   -2   -1    2    8    1    0.017725   -0.071809
   -2   -1    2    9    1   -0.003961    0.033486
   -2   -1    2   10    1   -0.055433    0.050322
   -2   -1    2   11    1    0.015010    0.037478
   -2   -1    2   12    1   -0.064393   -0.009066
   -2   -1    2   13    1    0.014573    0.005404
   -2   -1    2   14    1    0.013398   -0.005282
   -2   -1    2   15    1   -0.000080   -0.001550
   -2   -1    2    1    2   -0.003865   -0.014935
   -2   -1    2    2    2    0.020782    0.006928
   -2   -1    2    3    2   -0.008268   -0.017293
   -2   -1    2    4    2   -0.018970   -0.002200
   -2   -1    2    5    2    0.013918    0.004131
   -2   -1    2    6    2    0.183746   -0.043231
   -2   -1    2    7    2   -0.095634   -0.011805
   -2   -1    2    8    2   -0.053340   -0.027160
   -2   -1    2    9    2    0.065440   -0.045210
   -2   -1    2   10    2   -0.112308    0.014944
   -2   -1    2   11    2    0.042353   -0.015679
   -2   -1    2   12    2   -0.032281   -0.018836
   -2   -1    2   13    2    0.015242   -0.005889
   -2   -1    2   14    2    0.021878   -0.005958
   -2   -1    2   15    2    0.002570   -0.002964
   -2   -1    2    1    3    0.008530    0.000075
   -2   -1    2    2    3   -0.020123   -0.012008
   -2   -1    2    3    3    0.016268   -0.000088
   -2   -1    2    4    3    0.002936    0.010645
   -2   -1    2    5    3   -0.005707    0.013750
   -2   -1    2    6    3    0.000632   -0.125008
   -2   -1    2    7    3    0.085211   -0.025673
   -2   -1    2    8    3   -0.056958   -0.007924
   -2   -1    2    9    3    0.084294    0.003315
   -2   -1    2   10    3   -0.007420   -0.033577
   -2   -1    2   11    3   -0.006005    0.001284
   -2   -1    2   12    3    0.010865    0.057117
   -2   -1    2   13    3   -0.000201    0.011241
   -2   -1    2   14    3   -0.006150    0.004471
   -2   -1    2   15    3   -0.001946    0.004705
   -2   -1    2    1    4   -0.005815    0.032847
   -2   -1    2    2    4   -0.018811    0.009907
   -2   -1    2    3    4   -0.005893    0.002281
   -2   -1    2    4    4    0.005478    0.003990
   -2   -1    2    5    4   -0.021620    0.010375
   -2   -1    2    6    4    0.062119    0.070788
   -2   -1    2    7    4   -0.044430    0.047861
   -2   -1    2    8    4   -0.023266   -0.049802
   -2   -1    2    9    4   -0.015131    0.006759
   -2   -1    2   10    4    0.065922   -0.033998
   -2   -1    2   11    4   -0.018954    0.043352
   -2   -1    2   12    4   -0.019845   -0.086182
   -2   -1    2   13    4    0.016035   -0.000220
   -2   -1    2   14    4    0.007498    0.001564
   -2   -1    2   15    4   -0.002149   -0.000847
   -2   -1    2    1    5    0.027248   -0.011174
   -2   -1    2    2    5   -0.008711    0.003358
   -2   -1    2    3    5   -0.000263   -0.004241
   -2   -1    2    4    5   -0.008346    0.007397
   -2   -1    2    5    5   -0.000439    0.012938
   -2   -1    2    6    5    0.276761   -0.088145
   -2   -1    2    7    5   -0.181873   -0.041416
   -2   -1    2    8    5   -0.140614   -0.033130
   -2   -1    2    9    5    0.035311   -0.012510
   -2   -1    2   10    5   -0.112787    0.065679
   -2   -1    2   11    5   -0.029741   -0.070884
   -2   -1    2   12    5   -0.032617   -0.018188
   -2   -1    2   13    5   -0.007504   -0.001894
   -2   -1    2   14    5   -0.003760   -0.001014
   -2   -1    2   15    5    0.005474   -0.001682
   -2   -1    2    1    6   -0.146273   -0.032936
   -2   -1    2    2    6   -0.213185    0.017681
   -2   -1    2    3    6   -0.035856    0.033913
   -2   -1    2    4    6   -0.190422    0.025470
   -2   -1    2    5    6   -0.309358    0.003332
   -2   -1    2    6    6   -0.275789   -0.272351
   -2   -1    2    7    6   -0.042587   -0.465673
   -2   -1    2    8    6    0.188057   -0.243755
   -2   -1    2    9    6   -0.188256    0.134608
   -2   -1    2   10    6   -0.253357   -0.017677
   -2   -1    2   11    6    0.173217   -0.845816
   -2   -1    2   12    6    0.152653   -0.168615
   -2   -1    2   13    6   -0.037530   -0.021361
   -2   -1    2   14    6    0.011400   -0.031776
   -2   -1    2   15    6    0.018059   -0.024192
   -2   -1    2    1    7   -0.190623    0.079347
   -2   -1    2    2    7    0.031112    0.097506
   -2   -1    2    3    7   -0.220211   -0.063257
   -2   -1    2    4    7    0.054268   -0.045758
   -2   -1    2    5    7    0.020381    0.010808
   -2   -1    2    6    7    0.678240    0.247970
   -2   -1    2    7    7    0.533786    0.390289
   -2   -1    2    8    7    0.566773    0.842721
   -2   -1    2    9    7   -0.223566   -0.171305
   -2   -1    2   10    7    0.255833   -0.232309
   -2   -1    2   11    7    0.140795   -0.712895
   -2   -1    2   12    7   -0.389981   -0.295729
   -2   -1    2   13    7   -0.028319   -0.003782
   -2   -1    2   14    7   -0.035132   -0.063767
   -2   -1    2   15    7    0.010588    0.000310
   -2   -1    2    1    8   -0.056391   -0.059195
   -2   -1    2    2    8   -0.045117   -0.059878
   -2   -1    2    3    8    0.041584   -0.034821
   -2   -1    2    4    8   -0.007360   -0.022148
   -2   -1    2    5    8    0.073095   -0.074340
   -2   -1    2    6    8   -0.596053   -0.166659
   -2   -1    2    7    8    0.000708    0.488963
   -2   -1    2    8    8    0.270942   -0.204613
   -2   -1    2    9    8    0.010571   -0.314259
   -2   -1    2   10    8    0.178299   -0.023063
   -2   -1    2   11    8    0.153481   -0.085097
   -2   -1    2   12    8    0.412354   -0.225801
   -2   -1    2   13    8    0.017973    0.008132
   -2   -1    2   14    8   -0.026025    0.019223
   -2   -1    2   15    8   -0.022810    0.007958
   -2   -1    2    1    9   -0.082825    0.083146
   -2   -1    2    2    9   -0.050148    0.028275
   -2   -1    2    3    9   -0.032554    0.036650
   -2   -1    2    4    9   -0.016288    0.086982
   -2   -1    2    5    9   -0.005300    0.029879
   -2   -1    2    6    9   -0.578649    0.078787
   -2   -1    2    7    9    0.187162   -0.427367
   -2   -1    2    8    9   -0.360050   -0.320091
   -2   -1    2    9    9   -0.052037    0.154112
   -2   -1    2   10    9   -0.007763    0.128466
   -2   -1    2   11    9   -0.104340    0.568294
   -2   -1    2   12    9   -0.062148   -0.127122
   -2   -1    2   13    9    0.027257    0.018517
   -2   -1    2   14    9   -0.034099    0.018263
   -2   -1    2   15    9   -0.032470    0.021429
   -2   -1    2    1   10   -0.005336   -0.009381
   -2   -1    2    2   10   -0.047360   -0.057069
   -2   -1    2    3   10    0.028619    0.033620
   -2   -1    2    4   10   -0.063320    0.030325
   -2   -1    2    5   10    0.010186   -0.059009
   -2   -1    2    6   10   -0.483048    0.063883
   -2   -1    2    7   10   -0.113765   -0.462058
   -2   -1    2    8   10    0.250537   -0.412794
   -2   -1    2    9   10    0.097542    0.113475
   -2   -1    2   10   10   -0.452116   -0.153129
   -2   -1    2   11   10    0.755667    0.468639
   -2   -1    2   12   10    0.274087   -0.387595
   -2   -1    2   13   10    0.008862   -0.010705
   -2   -1    2   14   10    0.050852   -0.015697
   -2   -1    2   15   10    0.021114   -0.027354
   -2   -1    2    1   11   -0.036280   -0.037051
   -2   -1    2    2   11   -0.025840   -0.021248
   -2   -1    2    3   11    0.024597    0.073111
   -2   -1    2    4   11   -0.094289    0.023186
   -2   -1    2    5   11   -0.011395   -0.023175
   -2   -1    2    6   11    0.000362   -0.493415
   -2   -1    2    7   11    0.322473   -0.149861
   -2   -1    2    8   11    0.316537    0.065751
   -2   -1    2    9   11   -0.332197    0.244585
   -2   -1    2   10   11   -0.373261   -0.264476
   -2   -1    2   11   11   -0.168809   -0.077816
   -2   -1    2   12   11    0.206352    0.120404
   -2   -1    2   13   11    0.056884   -0.045052
   -2   -1    2   14   11    0.002287   -0.035537
   -2   -1    2   15   11    0.030089   -0.087558
   -2   -1    2    1   12   -0.023514    0.075443
   -2   -1    2    2   12    0.030399   -0.028115
   -2   -1    2    3   12    0.007514    0.115143
   -2   -1    2    4   12    0.154044   -0.015160
   -2   -1    2    5   12    0.052241   -0.038474
   -2   -1    2    6   12   -0.266546    0.063855
   -2   -1    2    7   12    0.649248   -0.274567
   -2   -1    2    8   12    0.303745   -0.386204
   -2   -1    2    9   12   -0.288832    0.160524
   -2   -1    2   10   12   -0.247753   -0.088811
   -2   -1    2   11   12    0.074883    0.579971
   -2   -1    2   12   12    0.081343    0.141351
   -2   -1    2   13   12    0.020244    0.008300
   -2   -1    2   14   12    0.026053   -0.007031
   -2   -1    2   15   12   -0.020886    0.001735
   -2   -1    2    1   13   -0.033835   -0.025758
   -2   -1    2    2   13   -0.023269   -0.016149
   -2   -1    2    3   13   -0.012267   -0.003575
   -2   -1    2    4   13    0.022696   -0.009421
   -2   -1    2    5   13   -0.010728   -0.007515
   -2   -1    2    6   13   -0.107365   -0.120838
   -2   -1    2    7   13   -0.112856   -0.017876
   -2   -1    2    8   13   -0.007659   -0.045685
   -2   -1    2    9   13    0.075287    0.018632
   -2   -1    2   10   13   -0.072563   -0.132994
   -2   -1    2   11   13    0.002307    0.059667
   -2   -1    2   12   13   -0.039092    0.073976
   -2   -1    2   13   13    0.010202    0.002360
   -2   -1    2   14   13   -0.007118    0.000550
   -2   -1    2   15   13    0.001204   -0.000843
   -2   -1    2    1   14    0.019408    0.017845
   -2   -1    2    2   14    0.011705    0.003464
   -2   -1    2    3   14    0.008907   -0.002412
   -2   -1    2    4   14   -0.011436   -0.015499
   -2   -1    2    5   14    0.013452    0.000926
   -2   -1    2    6   14   -0.008823    0.082990
   -2   -1    2    7   14   -0.128632   -0.044682
   -2   -1    2    8   14    0.043487    0.034382
   -2   -1    2    9   14    0.019606    0.005915
   -2   -1    2   10   14    0.081178   -0.015395
   -2   -1    2   11   14   -0.001209   -0.041705
   -2   -1    2   12   14    0.109879    0.036775
   -2   -1    2   13   14    0.002616   -0.002263
   -2   -1    2   14   14   -0.001748   -0.004774
   -2   -1    2   15   14    0.009136   -0.004094
   -2   -1    2    1   15    0.004642   -0.005368
   -2   -1    2    2   15    0.007149   -0.007265
   -2   -1    2    3   15    0.004249    0.000775
   -2   -1    2    4   15   -0.004749   -0.000881
   -2   -1    2    5   15    0.007719    0.002396
   -2   -1    2    6   15   -0.033594   -0.056308
   -2   -1    2    7   15    0.008561   -0.042484
   -2   -1    2    8   15    0.083383    0.091923
   -2   -1    2    9   15   -0.039862    0.000769
   -2   -1    2   10   15    0.008046   -0.011146
   -2   -1    2   11   15    0.076061   -0.024894
   -2   -1    2   12   15   -0.003151   -0.013651
   -2   -1    2   13   15    0.000506    0.003327
   -2   -1    2   14   15   -0.003135    0.000410
   -2   -1    2   15   15    0.000543   -0.003422
   -2    0    0    1    1    0.151661    0.000000
   -2    0    0    2    1    0.009851    0.048881
   -2    0    0    3    1    0.010427   -0.001127
   -2    0    0    4    1   -0.116645    0.010293
   -2    0    0    5    1   -0.009036    0.033057
   -2    0    0    6    1    0.162904    0.107182
   -2    0    0    7    1   -0.219032   -0.046239
   -2    0    0    8    1    0.069195   -0.025311
   -2    0    0    9    1    0.080836    0.026461
   -2    0    0   10    1    0.054875    0.006876
   -2    0    0   11    1   -0.115388    0.023565
   -2    0    0   12    1   -0.053174   -0.081870
   -2    0    0   13    1   -0.069556   -0.001784
   -2    0    0   14    1   -0.027519   -0.003855
   -2    0    0   15    1   -0.029312   -0.012730
   -2    0    0    1    2    0.009851   -0.048881
   -2    0    0    2    2   -0.038611    0.000000
   -2    0    0    3    2    0.023185   -0.001409
   -2    0    0    4    2   -0.006894   -0.003037
   -2    0    0    5    2   -0.026102    0.008569
   -2    0    0    6    2    0.108175   -0.105737
   -2    0    0    7    2   -0.004684   -0.023184
   -2    0    0    8    2   -0.120943   -0.042706
   -2    0    0    9    2    0.004644   -0.004166
   -2    0    0   10    2   -0.207906   -0.010811
   -2    0    0   11    2    0.157222   -0.123975
   -2    0    0   12    2   -0.116480    0.068923
   -2    0    0   13    2   -0.007927    0.006963
   -2    0    0   14    2   -0.023503   -0.007063
   -2    0    0   15    2    0.026000    0.007310
   -2    0    0    1    3    0.010427    0.001127
   -2    0    0    2    3    0.023185    0.001409
   -2    0    0    3    3    0.014948    0.000000
   -2    0    0    4    3    0.011474   -0.016360
   -2    0    0    5    3    0.014347   -0.001010
   -2    0    0    6    3    0.061739    0.066570
   -2    0    0    7    3   -0.073047    0.048092
   -2    0    0    8    3    0.065817   -0.004577
   -2    0    0    9    3   -0.018491    0.027551
   -2    0    0   10    3    0.121654   -0.102694
   -2    0    0   11    3    0.105828    0.073302
   -2    0    0   12    3    0.000924   -0.034963
   -2    0    0   13    3   -0.007975    0.011652
   -2    0    0   14    3    0.023941   -0.013184
   -2    0    0   15    3   -0.002326    0.007125
   -2    0    0    1    4   -0.116645   -0.010293
   -2    0    0    2    4   -0.006894    0.003037
   -2    0    0    3    4    0.011474    0.016360
   -2    0    0    4    4    0.289470    0.000000
   -2    0    0    5    4    0.021345    0.000844
   -2    0    0    6    4   -0.031107    0.016148
   -2    0    0    7    4    0.121664   -0.097095
   -2    0    0    8    4    0.023340   -0.152774
   -2    0    0    9    4   -0.032447    0.031796
   -2    0    0   10    4    0.031571    0.038674
   -2    0    0   11    4   -0.030528    0.108202
   -2    0    0   12    4    0.066101    0.029076
   -2    0    0   13    4   -0.004751    0.010272
   -2    0    0   14    4    0.011050   -0.038732
   -2    0    0   15    4    0.025189    0.013207
   -2    0    0    1    5   -0.009036   -0.033057
   -2    0    0    2    5   -0.026102   -0.008569
   -2    0    0    3    5    0.014347    0.001010
   -2    0    0    4    5    0.021345   -0.000844
   -2    0    0    5    5   -0.062008    0.000000
   -2    0    0    6    5    0.063516   -0.036126
   -2    0    0    7    5   -0.000860   -0.135990
   -2    0    0    8    5   -0.026622   -0.015376
   -2    0    0    9    5    0.027774    0.006945
   -2    0    0   10    5   -0.119311   -0.003988
   -2    0    0   11    5    0.208655   -0.058237
   -2    0    0   12    5   -0.002897    0.098199
   -2    0    0   13    5    0.018966    0.034151
   -2    0    0   14    5   -0.025072   -0.006820
   -2    0    0   15    5   -0.010500   -0.009626
   -2    0    0    1    6    0.162904   -0.107182
   -2    0    0    2    6    0.108175    0.105737
   -2    0    0    3    6    0.061739   -0.066570
   -2    0    0    4    6   -0.031107   -0.016148
   -2    0    0    5    6    0.063516    0.036126
   -2    0    0    6    6    0.425163    0.000000
   -2    0    0    7    6   -0.547317    0.333770
   -2    0    0    8    6   -0.443519   -0.396092
   -2    0    0    9    6    0.291580   -0.321206
   -2    0    0   10    6    0.213326   -0.170476
   -2    0    0   11    6   -0.307865   -0.294703
   -2    0    0   12    6   -0.127729    0.295102
   -2    0    0   13    6   -0.107842   -0.048215
   -2    0    0   14    6   -0.008984    0.020388
   -2    0    0   15    6   -0.111522    0.056462
   -2    0    0    1    7   -0.219032    0.046239
   -2    0    0    2    7   -0.004684    0.023184
   -2    0    0    3    7   -0.073047   -0.048092
   -2    0    0    4    7    0.121664    0.097095
   -2    0    0    5    7   -0.000860    0.135990
   -2    0    0    6    7   -0.547317   -0.333770
   -2    0    0    7    7   -0.151304    0.000000
   -2    0    0    8    7   -0.156036    0.841427
   -2    0    0    9    7   -0.046380   -0.238315
   -2    0    0   10    7    0.697226    0.722351
   -2    0    0   11    7   -1.132571   -0.361668
   -2    0    0   12    7    0.469017    0.484704
   -2    0    0   13    7   -0.371481   -0.219905
   -2    0    0   14    7   -0.296986    0.047827
   -2    0    0   15    7    0.217457   -0.121161
   -2    0    0    1    8    0.069195    0.025311
   -2    0    0    2    8   -0.120943    0.042706
   -2    0    0    3    8    0.065817    0.004577
   -2    0    0    4    8    0.023340    0.152774
   -2    0    0    5    8   -0.026622    0.015376
   -2    0    0    6    8   -0.443519    0.396092
   -2    0    0    7    8   -0.156036   -0.841427
   -2    0    0    8    8    1.598335   -0.000000
   -2    0    0    9    8    0.042059    0.314499
   -2    0    0   10    8    0.106584    0.527769
   -2    0    0   11    8    0.343971    0.316293
   -2    0    0   12    8    0.572924    0.027016
   -2    0    0   13    8    0.433835    0.061297
   -2    0    0   14    8    0.060764   -0.027936
   -2    0    0   15    8   -0.054595    0.047392
   -2    0    0    1    9    0.080836   -0.026461
   -2    0    0    2    9    0.004644    0.004166
   -2    0    0    3    9   -0.018491   -0.027551
   -2    0    0    4    9   -0.032447   -0.031796
   -2    0    0    5    9    0.027774   -0.006945
   -2    0    0    6    9    0.291580    0.321206
   -2    0    0    7    9   -0.046380    0.238315
   -2    0    0    8    9    0.042059   -0.314499
   -2    0    0    9    9   -0.164284   -0.000000
   -2    0    0   10    9    0.059567   -0.275790
   -2    0    0   11    9   -0.060960    0.385568
   -2    0    0   12    9   -0.061207   -0.354149
   -2    0    0   13    9    0.073755   -0.047846
   -2    0    0   14    9    0.005474   -0.041291
   -2    0    0   15    9    0.181607    0.051169
   -2    0    0    1   10    0.054875   -0.006876
   -2    0    0    2   10   -0.207906    0.010811
   -2    0    0    3   10    0.121654    0.102694
   -2    0    0    4   10    0.031571   -0.038674
   -2    0    0    5   10   -0.119311    0.003988
   -2    0    0    6   10    0.213326    0.170476
   -2    0    0    7   10    0.697226   -0.722351
   -2    0    0    8   10    0.106584   -0.527769
   -2    0    0    9   10    0.059567    0.275790
   -2    0    0   10   10   -1.133964    0.000000
   -2    0    0   11   10    0.235631   -0.020567
   -2    0    0   12   10   -0.424711    0.010861
   -2    0    0   13   10    0.001514    0.055419
   -2    0    0   14   10    0.195862   -0.086609
   -2    0    0   15   10    0.054854   -0.057047
   -2    0    0    1   11   -0.115388   -0.023565
   -2    0    0    2   11    0.157222    0.123975
   -2    0    0    3   11    0.105828   -0.073302
   -2    0    0    4   11   -0.030528   -0.108202
   -2    0    0    5   11    0.208655    0.058237
   -2    0    0    6   11   -0.307865    0.294703
   -2    0    0    7   11   -1.132571    0.361668
   -2    0    0    8   11    0.343971   -0.316293
   -2    0    0    9   11   -0.060960   -0.385568
   -2    0    0   10   11    0.235631    0.020567
   -2    0    0   11   11   -1.633945    0.000000
   -2    0    0   12   11    0.534416   -0.455612
   -2    0    0   13   11    0.457082   -0.026110
   -2    0    0   14   11   -0.333120   -0.056006
   -2    0    0   15   11   -0.010653    0.029193
   -2    0    0    1   12   -0.053174    0.081870
   -2    0    0    2   12   -0.116480   -0.068923
   -2    0    0    3   12    0.000924    0.034963
   -2    0    0    4   12    0.066101   -0.029076
   -2    0    0    5   12   -0.002897   -0.098199
   -2    0    0    6   12   -0.127729   -0.295102
   -2    0    0    7   12    0.469017   -0.484704
   -2    0    0    8   12    0.572924   -0.027016
   -2    0    0    9   12   -0.061207    0.354149
   -2    0    0   10   12   -0.424711   -0.010861
   -2    0    0   11   12    0.534416    0.455612
   -2    0    0   12   12    0.670661   -0.000000
   -2    0    0   13   12    0.181846    0.046865
   -2    0    0   14   12    0.018111   -0.034483
   -2    0    0   15   12    0.196453    0.055613
   -2    0    0    1   13   -0.069556    0.001784
   -2    0    0    2   13   -0.007927   -0.006963
   -2    0    0    3   13   -0.007975   -0.011652
   -2    0    0    4   13   -0.004751   -0.010272
   -2    0    0    5   13    0.018966   -0.034151
   -2    0    0    6   13   -0.107842    0.048215
   -2    0    0    7   13   -0.371481    0.219905
   -2    0    0    8   13    0.433835   -0.061297
   -2    0    0    9   13    0.073755    0.047846
   -2    0    0   10   13    0.001514   -0.055419
   -2    0    0   11   13    0.457082    0.026110
   -2    0    0   12   13    0.181846   -0.046865
   -2    0    0   13   13    0.000498    0.000000
   -2    0    0   14   13    0.004655    0.001918
   -2    0    0   15   13    0.008078    0.000692
   -2    0    0    1   14   -0.027519    0.003855
   -2    0    0    2   14   -0.023503    0.007063
   -2    0    0    3   14    0.023941    0.013184
   -2    0    0    4   14    0.011050    0.038732
   -2    0    0    5   14   -0.025072    0.006820
   -2    0    0    6   14   -0.008984   -0.020388
   -2    0    0    7   14   -0.296986   -0.047827
   -2    0    0    8   14    0.060764    0.027936
   -2    0    0    9   14    0.005474    0.041291
   -2    0    0   10   14    0.195862    0.086609
   -2    0    0   11   14   -0.333120    0.056006
   -2    0    0   12   14    0.018111    0.034483
   -2    0    0   13   14    0.004655   -0.001918
   -2    0    0   14   14   -0.018168    0.000000
   -2    0    0   15   14    0.011517    0.003620
   -2    0    0    1   15   -0.029312    0.012730
   -2    0    0    2   15    0.026000   -0.007310
   -2    0    0    3   15   -0.002326   -0.007125
   -2    0    0    4   15    0.025189   -0.013207
   -2    0    0    5   15   -0.010500    0.009626
   -2    0    0    6   15   -0.111522   -0.056462
   -2    0    0    7   15    0.217457    0.121161
   -2    0    0    8   15   -0.054595   -0.047392
   -2    0    0    9   15    0.181607   -0.051169
   -2    0    0   10   15    0.054854    0.057047
   -2    0    0   11   15   -0.010653   -0.029193
   -2    0    0   12   15    0.196453   -0.055613
   -2    0    0   13   15    0.008078   -0.000692
   -2    0    0   14   15    0.011517   -0.003620
   -2    0    0   15   15    0.000289    0.000000
   -2    0    1    1    1    0.007009   -0.034338
   -2    0    1    2    1    0.050668    0.018196
   -2    0    1    3    1    0.007680   -0.027422
   -2    0    1    4    1    0.024626   -0.004731
   -2    0    1    5    1    0.016445   -0.001870
   -2    0    1    6    1    0.005243   -0.009961
   -2    0    1    7    1    0.120856    0.235680
   -2    0    1    8    1    0.099246    0.084716
   -2    0    1    9    1    0.035419   -0.022456
   -2    0    1   10    1    0.096922    0.007796
   -2    0    1   11    1    0.263342   -0.288882
   -2    0    1   12    1   -0.069473    0.110896
   -2    0    1   13    1   -0.040685    0.015204
   -2    0    1   14    1   -0.004859   -0.006629
   -2    0    1   15    1   -0.014917    0.003004
   -2    0    1    1    2    0.035315    0.009205
   -2    0    1    2    2   -0.002689   -0.009774
   -2    0    1    3    2   -0.008500   -0.004838
   -2    0    1    4    2   -0.025532   -0.016352
   -2    0    1    5    2   -0.002996   -0.014697
   -2    0    1    6    2   -0.032666    0.043344
   -2    0    1    7    2   -0.192827   -0.006012
   -2    0    1    8    2    0.166186   -0.022432
   -2    0    1    9    2    0.143463   -0.005219
   -2    0    1   10    2    0.004054    0.026345
   -2    0    1   11    2    0.012329   -0.037096
   -2    0    1   12    2    0.084891   -0.057993
   -2    0    1   13    2    0.003201    0.002911
   -2    0    1   14    2    0.016701   -0.008963
   -2    0    1   15    2    0.009492    0.005378
   -2    0    1    1    3    0.005905   -0.018808
   -2    0    1    2    3    0.006604   -0.001085
   -2    0    1    3    3    0.002182   -0.008482
   -2    0    1    4    3    0.038952    0.020524
   -2    0    1    5    3    0.013561   -0.007823
   -2    0    1    6    3   -0.012449   -0.033188
   -2    0    1    7    3   -0.078532    0.059063
   -2    0    1    8    3   -0.051917    0.068246
   -2    0    1    9    3    0.116075   -0.014949
   -2    0    1   10    3    0.015065    0.046549
   -2    0    1   11    3    0.070262   -0.042544
   -2    0    1   12    3   -0.055238    0.075951
   -2    0    1   13    3    0.005215    0.004529
   -2    0    1   14    3   -0.003564    0.005646
   -2    0    1   15    3   -0.003128    0.001584
   -2    0    1    1    4    0.030174    0.003563
   -2    0    1    2    4   -0.019332    0.022074
   -2    0    1    3    4    0.004061   -0.009028
   -2    0    1    4    4    0.010479   -0.011821
   -2    0    1    5    4   -0.001177    0.003284
   -2    0    1    6    4    0.130278    0.009090
   -2    0    1    7    4   -0.460182    0.037700
   -2    0    1    8    4    0.033167    0.053179
   -2    0    1    9    4    0.072602    0.043378
   -2    0    1   10    4    0.139738    0.103751
   -2    0    1   11    4   -0.004333    0.013334
   -2    0    1   12    4    0.037494   -0.038172
   -2    0    1   13    4    0.052190   -0.001893
   -2    0    1   14    4    0.020427   -0.014273
   -2    0    1   15    4   -0.007651    0.003984
   -2    0    1    1    5    0.041710    0.009215
   -2    0    1    2    5    0.007549   -0.001737
   -2    0    1    3    5   -0.000068   -0.007807
   -2    0    1    4    5    0.003216   -0.007239
   -2    0    1    5    5   -0.002103   -0.012842
   -2    0    1    6    5   -0.013050    0.001306
   -2    0    1    7    5   -0.059398   -0.109740
   -2    0    1    8    5    0.184104    0.016514
   -2    0    1    9    5    0.074842    0.027339
   -2    0    1   10    5    0.048481    0.166336
   -2    0    1   11    5    0.052534    0.017049
   -2    0    1   12    5    0.069938    0.015617
   -2    0    1   13    5   -0.007380   -0.008650
   -2    0    1   14    5    0.005477    0.006990
   -2    0    1   15    5    0.009247   -0.006164
   -2    0    1    1    6    0.057581   -0.249052
   -2    0    1    2    6   -0.168217    0.010697
   -2    0    1    3    6    0.180259   -0.047454
   -2    0    1    4    6    0.064177    0.130050
   -2    0    1    5    6   -0.139204    0.033164
   -2    0    1    6    6    0.660536   -0.526369
   -2    0    1    7    6    0.360094    1.385549
   -2    0    1    8    6    0.149636   -0.293591
   -2    0    1    9    6    0.107104   -0.246900
   -2    0    1   10    6    0.004118   -0.103681
   -2    0    1   11    6   -0.441862   -0.222760
   -2    0    1   12    6   -0.234094    0.617221
   -2    0    1   13    6    0.112802    0.084235
   -2    0    1   14    6    0.047799   -0.043763
   -2    0    1   15    6   -0.009086    0.066555
   -2    0    1    1    7    0.134204    0.077499
   -2    0    1    2    7    0.062949   -0.007322
   -2    0    1    3    7    0.213255    0.050596
   -2    0    1    4    7    0.039521   -0.091005
   -2    0    1    5    7    0.049352   -0.036889
   -2    0    1    6    7    0.540216    0.238650
   -2    0    1    7    7   -0.092313    0.102679
   -2    0    1    8    7   -0.834581   -0.621264
   -2    0    1    9    7    0.404969   -0.042914
   -2    0    1   10    7   -0.096728   -0.080764
   -2    0    1   11    7    0.343756    0.084157
   -2    0    1   12    7    0.082346    0.146190
   -2    0    1   13    7    0.003516   -0.032961
   -2    0    1   14    7    0.002018   -0.003582
   -2    0    1   15    7    0.052989   -0.024479
   -2    0    1    1    8   -0.010694    0.123783
   -2    0    1    2    8   -0.201795    0.038057
   -2    0    1    3    8   -0.138617    0.083217
   -2    0    1    4    8   -0.070842    0.070043
   -2    0    1    5    8   -0.207720    0.162577
   -2    0    1    6    8   -0.619676    0.273486
   -2    0    1    7    8   -0.587538   -0.204085
   -2    0    1    8    8   -0.102502    0.532759
   -2    0    1    9    8   -0.037985    0.129382
   -2    0    1   10    8    0.229428    0.462094
   -2    0    1   11    8   -1.065063    0.094745
   -2    0    1   12    8   -0.143359    0.074636
   -2    0    1   13    8   -0.088035    0.027874
   -2    0    1   14    8    0.017934   -0.038060
   -2    0    1   15    8   -0.032826    0.042115
   -2    0    1    1    9   -0.072607   -0.067630
   -2    0    1    2    9    0.025065    0.090277
   -2    0    1    3    9   -0.078160   -0.032309
   -2    0    1    4    9    0.083245   -0.031318
   -2    0    1    5    9   -0.020939    0.040586
   -2    0    1    6    9    0.197209   -0.310035
   -2    0    1    7    9   -0.370667   -0.044080
   -2    0    1    8    9   -0.171125    0.274346
   -2    0    1    9    9    0.153038    0.009423
   -2    0    1   10    9   -0.068455   -0.255949
   -2    0    1   11    9    0.399181   -0.299273
   -2    0    1   12    9   -0.023296    0.090107
   -2    0    1   13    9   -0.014975    0.000594
   -2    0    1   14    9   -0.033375   -0.015499
   -2    0    1   15    9    0.038435   -0.028605
   -2    0    1    1   10    0.286900    0.000731
   -2    0    1    2   10    0.005307   -0.005714
   -2    0    1    3   10   -0.031094   -0.040686
   -2    0    1    4   10   -0.094648   -0.126784
   -2    0    1    5   10   -0.024547   -0.062183
   -2    0    1    6   10    0.405234    0.206778
   -2    0    1    7   10   -0.334713    0.012277
   -2    0    1    8   10    0.247059   -0.055340
   -2    0    1    9   10    0.264725    0.070155
   -2    0    1   10   10   -0.200005   -0.120741
   -2    0    1   11   10   -0.185866   -0.088029
   -2    0    1   12   10   -0.257407   -0.433957
   -2    0    1   13   10   -0.083224    0.108037
   -2    0    1   14   10    0.163042   -0.015913
   -2    0    1   15   10   -0.082965    0.084049
   -2    0    1    1   11   -0.107197   -0.079848
   -2    0    1    2   11   -0.049537   -0.070518
   -2    0    1    3   11   -0.038219    0.028494
   -2    0    1    4   11   -0.010196    0.131778
   -2    0    1    5   11   -0.102884   -0.023754
   -2    0    1    6   11   -0.246989   -0.564692
   -2    0    1    7   11   -0.170356   -0.246858
   -2    0    1    8   11   -0.622153    0.473600
   -2    0    1    9   11   -0.134374    0.141906
   -2    0    1   10   11    0.004180    0.262474
   -2    0    1   11   11   -0.360720   -0.055881
   -2    0    1   12   11    0.189238    0.379584
   -2    0    1   13   11   -0.061661    0.193939
   -2    0    1   14   11   -0.114720   -0.024223
   -2    0    1   15   11    0.127969    0.182307
   -2    0    1    1   12   -0.013891   -0.042420
   -2    0    1    2   12   -0.040969   -0.011695
   -2    0    1    3   12   -0.107022    0.021612
   -2    0    1    4   12    0.053817   -0.016145
   -2    0    1    5   12   -0.063721   -0.007797
   -2    0    1    6   12   -0.086992   -0.406218
   -2    0    1    7   12    0.031166   -0.243020
   -2    0    1    8   12    0.570887   -0.150588
   -2    0    1    9   12   -0.109272    0.258822
   -2    0    1   10   12   -0.453472   -0.074500
   -2    0    1   11   12   -0.071557   -0.315153
   -2    0    1   12   12   -0.093641    0.149897
   -2    0    1   13   12   -0.049239   -0.023104
   -2    0    1   14   12   -0.001229    0.006271
   -2    0    1   15   12    0.003185   -0.148761
   -2    0    1    1   13    0.028942   -0.006392
   -2    0    1    2   13   -0.004853   -0.007597
   -2    0    1    3   13   -0.004923    0.005357
   -2    0    1    4   13    0.008332    0.006891
   -2    0    1    5   13   -0.017236   -0.001760
   -2    0    1    6   13    0.012550    0.039439
   -2    0    1    7   13    0.145278   -0.069063
   -2    0    1    8   13   -0.119307   -0.008734
   -2    0    1    9   13   -0.092816    0.012038
   -2    0    1   10   13   -0.042303    0.007321
   -2    0    1   11   13   -0.023341    0.067656
   -2    0    1   12   13   -0.128853   -0.003144
   -2    0    1   13   13   -0.007684   -0.003228
   -2    0    1   14   13   -0.008437   -0.010182
   -2    0    1   15   13    0.003307    0.004870
   -2    0    1    1   14    0.031928    0.004532
   -2    0    1    2   14    0.017864    0.006852
   -2    0    1    3   14   -0.010509    0.006098
   -2    0    1    4   14   -0.022279   -0.002457
   -2    0    1    5   14    0.023766   -0.005345
   -2    0    1    6   14    0.093208    0.032921
   -2    0    1    7   14   -0.227614    0.032939
   -2    0    1    8   14   -0.024848   -0.007703
   -2    0    1    9   14   -0.002034   -0.039293
   -2    0    1   10   14    0.105489   -0.018378
   -2    0    1   11   14   -0.007163    0.021318
   -2    0    1   12   14    0.073149   -0.061458
   -2    0    1   13   14   -0.000624   -0.001124
   -2    0    1   14   14    0.001803   -0.008543
   -2    0    1   15   14    0.000868   -0.004824
   -2    0    1    1   15    0.005363   -0.009993
   -2    0    1    2   15   -0.014991   -0.006203
   -2    0    1    3   15   -0.024746    0.003976
   -2    0    1    4   15   -0.006121    0.008286
   -2    0    1    5   15   -0.028334   -0.004565
   -2    0    1    6   15    0.049036   -0.044319
   -2    0    1    7   15    0.066482    0.082879
   -2    0    1    8   15   -0.106145   -0.041556
   -2    0    1    9   15   -0.026026    0.016004
   -2    0    1   10   15   -0.074271   -0.013614
   -2    0    1   11   15   -0.032694   -0.034606
   -2    0    1   12   15    0.001886    0.027865
   -2    0    1   13   15    0.005754    0.000285
   -2    0    1   14   15   -0.007083    0.008139
   -2    0    1   15   15    0.000249   -0.002738
   -2    0    2    1    1    0.157569    0.000000
   -2    0    2    2    1   -0.182057   -0.002867
   -2    0    2    3    1    0.112393   -0.019764
   -2    0    2    4    1    0.124207    0.012618
   -2    0    2    5    1   -0.090725   -0.043853
   -2    0    2    6    1    0.166521    0.064556
   -2    0    2    7    1   -0.230510   -0.027576
   -2    0    2    8    1    0.178301   -0.136969
   -2    0    2    9    1    0.183392    0.087493
   -2    0    2   10    1   -0.028018    0.202830
   -2    0    2   11    1    0.321629    0.036490
   -2    0    2   12    1    0.004322   -0.067660
   -2    0    2   13    1    0.020259    0.011290
   -2    0    2   14    1    0.009328    0.001718
   -2    0    2   15    1   -0.007110    0.004998
   -2    0    2    1    2   -0.182057    0.002867
   -2    0    2    2    2    0.098367    0.000000
   -2    0    2    3    2   -0.061945    0.019549
   -2    0    2    4    2    0.002463   -0.004670
   -2    0    2    5    2    0.036979    0.010524
   -2    0    2    6    2   -0.190671    0.074487
   -2    0    2    7    2    0.298507   -0.129010
   -2    0    2    8    2   -0.259777   -0.023626
   -2    0    2    9    2    0.002230    0.032906
   -2    0    2   10    2   -0.081164    0.004424
   -2    0    2   11    2   -0.027373    0.019945
   -2    0    2   12    2   -0.133833    0.007163
   -2    0    2   13    2    0.002367    0.001086
   -2    0    2   14    2   -0.006776   -0.006652
   -2    0    2   15    2   -0.001201    0.004218
   -2    0    2    1    3    0.112393    0.019764
   -2    0    2    2    3   -0.061945   -0.019549
   -2    0    2    3    3    0.061842    0.000000
   -2    0    2    4    3    0.063097    0.000272
   -2    0    2    5    3   -0.025772   -0.028156
   -2    0    2    6    3   -0.024481    0.087340
   -2    0    2    7    3    0.032298    0.079227
   -2    0    2    8    3    0.072723   -0.093094
   -2    0    2    9    3    0.104904    0.109067
   -2    0    2   10    3    0.068428   -0.001423
   -2    0    2   11    3    0.215131    0.067422
   -2    0    2   12    3   -0.009834   -0.020798
   -2    0    2   13    3    0.001077    0.007309
   -2    0    2   14    3    0.006436    0.002590
   -2    0    2   15    3    0.008401    0.004270
   -2    0    2    1    4    0.124207   -0.012618
   -2    0    2    2    4    0.002463    0.004670
   -2    0    2    3    4    0.063097   -0.000272
   -2    0    2    4    4    0.013649   -0.000000
   -2    0    2    5    4    0.024134   -0.012761
   -2    0    2    6    4   -0.042085    0.024582
   -2    0    2    7    4   -0.085724    0.086973
   -2    0    2    8    4   -0.121743   -0.009495
   -2    0    2    9    4    0.069841    0.007494
   -2    0    2   10    4    0.207803   -0.065447
   -2    0    2   11    4    0.166968    0.143361
   -2    0    2   12    4    0.080537    0.046173
   -2    0    2   13    4    0.006939    0.009448
   -2    0    2   14    4    0.003092   -0.004956
   -2    0    2   15    4    0.017609    0.000883
   -2    0    2    1    5   -0.090725    0.043853
   -2    0    2    2    5    0.036979   -0.010524
   -2    0    2    3    5   -0.025772    0.028156
   -2    0    2    4    5    0.024134    0.012761
   -2    0    2    5    5    0.013646   -0.000000
   -2    0    2    6    5   -0.020786    0.189082
   -2    0    2    7    5    0.366541   -0.200410
   -2    0    2    8    5   -0.105662   -0.034131
   -2    0    2    9    5   -0.022810    0.108681
   -2    0    2   10    5   -0.079789    0.007519
   -2    0    2   11    5   -0.024056    0.116501
   -2    0    2   12    5   -0.065358    0.102991
   -2    0    2   13    5   -0.003275    0.002579
   -2    0    2   14    5   -0.002888   -0.002793
   -2    0    2   15    5   -0.005548    0.000409
   -2    0    2    1    6    0.166521   -0.064556
   -2    0    2    2    6   -0.190671   -0.074487
   -2    0    2    3    6   -0.024481   -0.087340
   -2    0    2    4    6   -0.042085   -0.024582
   -2    0    2    5    6   -0.020786   -0.189082
   -2    0    2    6    6    0.353629   -0.000000
   -2    0    2    7    6   -2.213600    0.361638
   -2    0    2    8    6    1.248608   -0.230358
   -2    0    2    9    6    0.304079    0.391875
   -2    0    2   10    6   -0.189943   -0.091406
   -2    0    2   11    6    0.726081   -0.125867
   -2    0    2   12    6    0.373928   -0.423136
   -2    0    2   13    6    0.056536    0.035785
   -2    0    2   14    6    0.045436    0.011389
   -2    0    2   15    6    0.014458    0.033184
   -2    0    2    1    7   -0.230510    0.027576
   -2    0    2    2    7    0.298507    0.129010
   -2    0    2    3    7    0.032298   -0.079227
   -2    0    2    4    7   -0.085724   -0.086973
   -2    0    2    5    7    0.366541    0.200410
   -2    0    2    6    7   -2.213600   -0.361638
   -2    0    2    7    7   -0.308835   -0.000000
   -2    0    2    8    7    0.417950    0.597315
   -2    0    2    9    7    0.358115   -0.534215
   -2    0    2   10    7    1.015242   -0.384380
   -2    0    2   11    7   -0.388794    0.077529
   -2    0    2   12    7    0.176293    0.292768
   -2    0    2   13    7    0.063367   -0.009352
   -2    0    2   14    7   -0.094978   -0.038521
   -2    0    2   15    7    0.039965    0.006390
   -2    0    2    1    8    0.178301    0.136969
   -2    0    2    2    8   -0.259777    0.023626
   -2    0    2    3    8    0.072723    0.093094
   -2    0    2    4    8   -0.121743    0.009495
   -2    0    2    5    8   -0.105662    0.034131
   -2    0    2    6    8    1.248608    0.230358
   -2    0    2    7    8    0.417950   -0.597315
   -2    0    2    8    8   -1.100030   -0.000000
   -2    0    2    9    8    0.011907    0.371235
   -2    0    2   10    8   -0.517109    0.348677
   -2    0    2   11    8    0.099799    0.137670
   -2    0    2   12    8    0.332195    0.105112
   -2    0    2   13    8   -0.047807    0.057302
   -2    0    2   14    8   -0.023096    0.009727
   -2    0    2   15    8    0.036350    0.054384
   -2    0    2    1    9    0.183392   -0.087493
   -2    0    2    2    9    0.002230   -0.032906
   -2    0    2    3    9    0.104904   -0.109067
   -2    0    2    4    9    0.069841   -0.007494
   -2    0    2    5    9   -0.022810   -0.108681
   -2    0    2    6    9    0.304079   -0.391875
   -2    0    2    7    9    0.358115    0.534215
   -2    0    2    8    9    0.011907   -0.371235
   -2    0    2    9    9    0.565032    0.000000
   -2    0    2   10    9   -0.229005   -0.277898
   -2    0    2   11    9    0.776277   -0.119844
   -2    0    2   12    9   -0.136308   -0.175425
   -2    0    2   13    9   -0.001474    0.015762
   -2    0    2   14    9    0.030651   -0.014548
   -2    0    2   15    9    0.030111    0.009287
   -2    0    2    1   10   -0.028018   -0.202830
   -2    0    2    2   10   -0.081164   -0.004424
   -2    0    2    3   10    0.068428    0.001423
   -2    0    2    4   10    0.207803    0.065447
   -2    0    2    5   10   -0.079789   -0.007519
   -2    0    2    6   10   -0.189943    0.091406
   -2    0    2    7   10    1.015242    0.384380
   -2    0    2    8   10   -0.517109   -0.348677
   -2    0    2    9   10   -0.229005    0.277898
   -2    0    2   10   10   -0.460207    0.000000
   -2    0    2   11   10    0.312877    0.260612
   -2    0    2   12   10   -0.392204    0.179625
   -2    0    2   13   10   -0.026197    0.031860
   -2    0    2   14   10    0.063735   -0.010101
   -2    0    2   15   10   -0.007879   -0.003239
   -2    0    2    1   11    0.321629   -0.036490
   -2    0    2    2   11   -0.027373   -0.019945
   -2    0    2    3   11    0.215131   -0.067422
   -2    0    2    4   11    0.166968   -0.143361
   -2    0    2    5   11   -0.024056   -0.116501
   -2    0    2    6   11    0.726081    0.125867
   -2    0    2    7   11   -0.388794   -0.077529
   -2    0    2    8   11    0.099799   -0.137670
   -2    0    2    9   11    0.776277    0.119844
   -2    0    2   10   11    0.312877   -0.260612
   -2    0    2   11   11    0.861700    0.000000
   -2    0    2   12   11   -0.156539    0.235747
   -2    0    2   13   11    0.016445   -0.049420
   -2    0    2   14   11   -0.020848    0.061044
   -2    0    2   15   11    0.053174   -0.102499
   -2    0    2    1   12    0.004322    0.067660
   -2    0    2    2   12   -0.133833   -0.007163
   -2    0    2    3   12   -0.009834    0.020798
   -2    0    2    4   12    0.080537   -0.046173
   -2    0    2    5   12   -0.065358   -0.102991
   -2    0    2    6   12    0.373928    0.423136
   -2    0    2    7   12    0.176293   -0.292768
   -2    0    2    8   12    0.332195   -0.105112
   -2    0    2    9   12   -0.136308    0.175425
   -2    0    2   10   12   -0.392204   -0.179625
   -2    0    2   11   12   -0.156539   -0.235747
   -2    0    2   12   12   -0.298195    0.000000
   -2    0    2   13   12   -0.033441   -0.041359
   -2    0    2   14   12    0.075951   -0.026227
   -2    0    2   15   12    0.033613    0.027297
   -2    0    2    1   13    0.020259   -0.011290
   -2    0    2    2   13    0.002367   -0.001086
   -2    0    2    3   13    0.001077   -0.007309
   -2    0    2    4   13    0.006939   -0.009448
   -2    0    2    5   13   -0.003275   -0.002579
   -2    0    2    6   13    0.056536   -0.035785
   -2    0    2    7   13    0.063367    0.009352
   -2    0    2    8   13   -0.047807   -0.057302
   -2    0    2    9   13   -0.001474   -0.015762
   -2    0    2   10   13   -0.026197   -0.031860
   -2    0    2   11   13    0.016445    0.049420
   -2    0    2   12   13   -0.033441    0.041359
   -2    0    2   13   13   -0.014918   -0.000000
   -2    0    2   14   13    0.015613   -0.004551
   -2    0    2   15   13   -0.004130    0.003057
   -2    0    2    1   14    0.009328   -0.001718
   -2    0    2    2   14   -0.006776    0.006652
   -2    0    2    3   14    0.006436   -0.002590
   -2    0    2    4   14    0.003092    0.004956
   -2    0    2    5   14   -0.002888    0.002793
   -2    0    2    6   14    0.045436   -0.011389
   -2    0    2    7   14   -0.094978    0.038521
   -2    0    2    8   14   -0.023096   -0.009727
   -2    0    2    9   14    0.030651    0.014548
   -2    0    2   10   14    0.063735    0.010101
   -2    0    2   11   14   -0.020848   -0.061044
   -2    0    2   12   14    0.075951    0.026227
   -2    0    2   13   14    0.015613    0.004551
   -2    0    2   14   14   -0.014845   -0.000000
   -2    0    2   15   14   -0.007083    0.009379
   -2    0    2    1   15   -0.007110   -0.004998
   -2    0    2    2   15   -0.001201   -0.004218
   -2    0    2    3   15    0.008401   -0.004270
   -2    0    2    4   15    0.017609   -0.000883
   -2    0    2    5   15   -0.005548   -0.000409
   -2    0    2    6   15    0.014458   -0.033184
   -2    0    2    7   15    0.039965   -0.006390
   -2    0    2    8   15    0.036350   -0.054384
   -2    0    2    9   15    0.030111   -0.009287
   -2    0    2   10   15   -0.007879    0.003239
   -2    0    2   11   15    0.053174    0.102499
   -2    0    2   12   15    0.033613   -0.027297
   -2    0    2   13   15   -0.004130   -0.003057
   -2    0    2   14   15   -0.007083   -0.009379
   -2    0    2   15   15    0.020336   -0.000000
   -2    1    0    1    1    0.048087    0.005717
   -2    1    0    2    1   -0.017164    0.008293
   -2    1    0    3    1    0.002118    0.003476
   -2    1    0    4    1   -0.046328    0.036671
   -2    1    0    5    1    0.006410    0.021627
   -2    1    0    6    1   -0.041920    0.099976
   -2    1    0    7    1   -0.104168    0.055556
   -2    1    0    8    1    0.119107   -0.016352
   -2    1    0    9    1    0.091685   -0.041374
   -2    1    0   10    1   -0.136602    0.072152
   -2    1    0   11    1   -0.065040    0.079951
   -2    1    0   12    1   -0.056637   -0.206385
   -2    1    0   13    1    0.018102    0.006041
   -2    1    0   14    1   -0.001557    0.006673
   -2    1    0   15    1   -0.030648   -0.024407
   -2    1    0    1    2    0.010762   -0.007237
   -2    1    0    2    2   -0.026647   -0.000995
   -2    1    0    3    2    0.015982   -0.000099
   -2    1    0    4    2    0.012515    0.003684
   -2    1    0    5    2   -0.017946   -0.001184
   -2    1    0    6    2    0.184799   -0.033600
   -2    1    0    7    2    0.082161   -0.014879
   -2    1    0    8    2   -0.060244   -0.060092
   -2    1    0    9    2    0.087410    0.017358
   -2    1    0   10    2   -0.131982    0.040488
   -2    1    0   11    2    0.011116   -0.051783
   -2    1    0   12    2   -0.127716    0.039106
   -2    1    0   13    2   -0.004948    0.001200
   -2    1    0   14    2   -0.013321   -0.012127
   -2    1    0   15    2    0.008499    0.004636
   -2    1    0    1    3    0.009960   -0.006769
   -2    1    0    2    3    0.027692    0.006122
   -2    1    0    3    3   -0.019125   -0.016143
   -2    1    0    4    3   -0.006045   -0.016196
   -2    1    0    5    3    0.013558   -0.011828
   -2    1    0    6    3   -0.127781    0.026055
   -2    1    0    7    3    0.019208   -0.031480
   -2    1    0    8    3   -0.038015   -0.017633
   -2    1    0    9    3    0.099143   -0.061930
   -2    1    0   10    3   -0.066058    0.012756
   -2    1    0   11    3   -0.005363    0.086100
   -2    1    0   12    3    0.054202   -0.055922
   -2    1    0   13    3    0.003059   -0.009212
   -2    1    0   14    3   -0.011606   -0.003472
   -2    1    0   15    3    0.004227   -0.003152
   -2    1    0    1    4    0.009624    0.047886
   -2    1    0    2    4   -0.013711    0.011246
   -2    1    0    3    4   -0.038947    0.000776
   -2    1    0    4    4   -0.063886   -0.025463
   -2    1    0    5    4   -0.014786    0.008086
   -2    1    0    6    4    0.015215    0.073110
   -2    1    0    7    4   -0.012676   -0.044057
   -2    1    0    8    4    0.014463   -0.205898
   -2    1    0    9    4   -0.022956    0.030134
   -2    1    0   10    4    0.063217   -0.009308
   -2    1    0   11    4   -0.217419   -0.094633
   -2    1    0   12    4    0.093419   -0.067007
   -2    1    0   13    4   -0.040897   -0.009267
   -2    1    0   14    4    0.002593   -0.011335
   -2    1    0   15    4    0.028901   -0.009784
   -2    1    0    1    5    0.019967    0.027927
   -2    1    0    2    5   -0.003349   -0.006825
   -2    1    0    3    5   -0.020110    0.000984
   -2    1    0    4    5   -0.054947    0.005254
   -2    1    0    5    5   -0.001188    0.001704
   -2    1    0    6    5    0.136579    0.011783
   -2    1    0    7    5    0.005778    0.014550
   -2    1    0    8    5    0.113286    0.020862
   -2    1    0    9    5    0.046825   -0.009498
   -2    1    0   10    5   -0.004419    0.036068
   -2    1    0   11    5   -0.072028    0.000064
   -2    1    0   12    5   -0.104516   -0.093400
   -2    1    0   13    5   -0.006930   -0.008692
   -2    1    0   14    5   -0.011173   -0.010506
   -2    1    0   15    5    0.017084    0.012753
   -2    1    0    1    6    0.104125   -0.159563
   -2    1    0    2    6   -0.117820   -0.001917
   -2    1    0    3    6    0.031870   -0.111471
   -2    1    0    4    6    0.083407    0.041350
   -2    1    0    5    6   -0.052454   -0.039810
   -2    1    0    6    6   -0.018961   -0.101147
   -2    1    0    7    6    0.335126    0.054334
   -2    1    0    8    6    0.167862    0.209164
   -2    1    0    9    6    0.030911   -0.462812
   -2    1    0   10    6   -0.541328    0.605086
   -2    1    0   11    6   -0.390588   -0.122532
   -2    1    0   12    6   -0.094885    0.214738
   -2    1    0   13    6    0.002575   -0.010380
   -2    1    0   14    6    0.040008   -0.081850
   -2    1    0   15    6   -0.026700   -0.072951
   -2    1    0    1    7   -0.062019    0.083840
   -2    1    0    2    7    0.055272    0.009851
   -2    1    0    3    7    0.035371   -0.138040
   -2    1    0    4    7   -0.021128   -0.084697
   -2    1    0    5    7    0.274466    0.191805
   -2    1    0    6    7   -0.239807   -0.819252
   -2    1    0    7    7   -0.500515    0.347237
   -2    1    0    8    7    0.304613    0.360448
   -2    1    0    9    7   -0.047961   -0.063841
   -2    1    0   10    7    0.652832    0.040869
   -2    1    0   11    7    0.323627   -0.520199
   -2    1    0   12    7    0.408514    0.374373
   -2    1    0   13    7    0.060733   -0.082226
   -2    1    0   14    7    0.011690   -0.009997
   -2    1    0   15    7   -0.007147    0.048440
   -2    1    0    1    8    0.020132    0.081078
   -2    1    0    2    8   -0.022203    0.031414
   -2    1    0    3    8    0.000071   -0.040500
   -2    1    0    4    8    0.024470   -0.024575
   -2    1    0    5    8   -0.029542   -0.066588
   -2    1    0    6    8    1.053864    0.297743
   -2    1    0    7    8    1.044431   -0.282245
   -2    1    0    8    8    0.630746   -0.202675
   -2    1    0    9    8   -0.305345    0.196251
   -2    1    0   10    8   -0.134388   -0.158359
   -2    1    0   11    8    0.709453   -0.211117
   -2    1    0   12    8   -0.494659   -0.081187
   -2    1    0   13    8    0.049607   -0.006732
   -2    1    0   14    8   -0.088476    0.007491
   -2    1    0   15    8   -0.082071   -0.035069
   -2    1    0    1    9    0.076926    0.025685
   -2    1    0    2    9   -0.008514    0.014357
   -2    1    0    3    9    0.060153    0.033252
   -2    1    0    4    9    0.062298   -0.007446
   -2    1    0    5    9   -0.017930    0.026106
   -2    1    0    6    9    0.253217    0.075669
   -2    1    0    7    9   -0.005893   -0.208241
   -2    1    0    8    9   -0.044931    0.031185
   -2    1    0    9    9    0.096804    0.249034
   -2    1    0   10    9    0.219596   -0.082692
   -2    1    0   11    9   -0.152605    0.187055
   -2    1    0   12    9   -0.295705   -0.157251
   -2    1    0   13    9   -0.067163   -0.004815
   -2    1    0   14    9   -0.120171   -0.001274
   -2    1    0   15    9   -0.053199    0.020086
   -2    1    0    1   10    0.032023    0.016949
   -2    1    0    2   10   -0.179872   -0.019190
   -2    1    0    3   10    0.108288    0.053627
   -2    1    0    4   10   -0.086504    0.059107
   -2    1    0    5   10   -0.021196   -0.114931
   -2    1    0    6   10    0.042517    0.391471
   -2    1    0    7   10    0.459572   -0.470163
   -2    1    0    8   10    0.579723   -0.387650
   -2    1    0    9   10    0.320256    0.115219
   -2    1    0   10   10   -0.785747    0.141075
   -2    1    0   11   10   -0.243368   -0.044024
   -2    1    0   12   10   -0.496576   -0.251927
   -2    1    0   13   10    0.021061    0.003526
   -2    1    0   14   10    0.140445    0.012047
   -2    1    0   15   10    0.015703    0.014316
   -2    1    0    1   11   -0.102454   -0.100169
   -2    1    0    2   11    0.094263    0.085600
   -2    1    0    3   11   -0.029885   -0.045253
   -2    1    0    4   11    0.085533    0.063118
   -2    1    0    5   11    0.180925    0.010293
   -2    1    0    6   11    0.005366   -0.454198
   -2    1    0    7   11   -0.253429    0.184725
   -2    1    0    8   11    0.231948    0.720717
   -2    1    0    9   11   -0.132225    0.142044
   -2    1    0   10   11    0.489090   -0.291523
   -2    1    0   11   11    0.652886   -0.513193
   -2    1    0   12   11    0.228387    0.418840
   -2    1    0   13   11   -0.142251   -0.114650
   -2    1    0   14   11    0.000575    0.022244
   -2    1    0   15   11   -0.001433   -0.118890
   -2    1    0    1   12    0.088782    0.114047
   -2    1    0    2   12   -0.154657    0.011635
   -2    1    0    3   12    0.042626    0.039712
   -2    1    0    4   12    0.136518   -0.012723
   -2    1    0    5   12   -0.002430    0.004302
   -2    1    0    6   12    0.126935   -0.098176
   -2    1    0    7   12   -0.075432   -0.480757
   -2    1    0    8   12    0.084854   -0.167707
   -2    1    0    9   12    0.099410    0.097920
   -2    1    0   10   12   -0.236234    0.022842
   -2    1    0   11   12   -1.091837    0.576861
   -2    1    0   12   12   -0.006345    0.095526
   -2    1    0   13   12   -0.068338    0.001913
   -2    1    0   14   12   -0.027747    0.018360
   -2    1    0   15   12   -0.023113    0.085289
   -2    1    0    1   13   -0.004462   -0.009877
   -2    1    0    2   13   -0.006513   -0.007390
   -2    1    0    3   13    0.006419    0.000889
   -2    1    0    4   13   -0.000176   -0.009394
   -2    1    0    5   13    0.014301   -0.006076
   -2    1    0    6   13    0.052441   -0.019979
   -2    1    0    7   13    0.001550   -0.032424
   -2    1    0    8   13   -0.156416    0.073260
   -2    1    0    9   13   -0.026890   -0.049116
   -2    1    0   10   13   -0.136419   -0.049822
   -2    1    0   11   13   -0.137681    0.018700
   -2    1    0   12   13   -0.050387    0.029729
   -2    1    0   13   13   -0.014851    0.007357
   -2    1    0   14   13   -0.001957   -0.000945
   -2    1    0   15   13   -0.001785    0.006639
   -2    1    0    1   14   -0.012049    0.014587
   -2    1    0    2   14    0.001854   -0.005431
   -2    1    0    3   14    0.001312    0.001082
   -2    1    0    4   14   -0.005006   -0.000158
   -2    1    0    5   14    0.015264   -0.008774
   -2    1    0    6   14    0.031028    0.008226
   -2    1    0    7   14    0.050985   -0.052769
   -2    1    0    8   14    0.072075    0.039165
   -2    1    0    9   14   -0.027676    0.010522
   -2    1    0   10   14    0.083196   -0.031183
   -2    1    0   11   14    0.055629   -0.029084
   -2    1    0   12   14    0.087172   -0.005342
   -2    1    0   13   14    0.010354    0.001557
   -2    1    0   14   14   -0.013507    0.007100
   -2    1    0   15   14    0.001353   -0.009787
   -2    1    0    1   15   -0.005766   -0.006321
   -2    1    0    2   15   -0.014704   -0.001996
   -2    1    0    3   15   -0.005126    0.003542
   -2    1    0    4   15   -0.015445   -0.004617
   -2    1    0    5   15   -0.013825   -0.003718
   -2    1    0    6   15    0.058990   -0.018169
   -2    1    0    7   15    0.024141   -0.199313
   -2    1    0    8   15    0.015921   -0.028447
   -2    1    0    9   15   -0.045243    0.027897
   -2    1    0   10   15   -0.136032    0.109685
   -2    1    0   11   15   -0.177430   -0.028913
   -2    1    0   12   15   -0.063594    0.031618
   -2    1    0   13   15   -0.000388    0.001762
   -2    1    0   14   15   -0.005073   -0.011552
   -2    1    0   15   15   -0.004109    0.004867
   -2    1    1    1    1   -0.046900   -0.010887
   -2    1    1    2    1    0.034389    0.002002
   -2    1    1    3    1   -0.052182   -0.015548
   -2    1    1    4    1   -0.012696   -0.022318
   -2    1    1    5    1    0.046338    0.003156
   -2    1    1    6    1   -0.027765   -0.012904
   -2    1    1    7    1    0.288612   -0.072280
   -2    1    1    8    1   -0.028537    0.154434
   -2    1    1    9    1   -0.046393   -0.098615
   -2    1    1   10    1   -0.026598    0.134213
   -2    1    1   11    1   -0.299293   -0.014744
   -2    1    1   12    1   -0.160564    0.012358
   -2    1    1   13    1   -0.011826    0.005288
   -2    1    1   14    1   -0.001950   -0.012209
   -2    1    1   15    1   -0.026843   -0.008297
   -2    1    1    1    2   -0.005557   -0.006144
[...]
    2    1   -1    7    4    0.012958    0.005127
    2    1   -1    8    4    0.022707    0.009028
    2    1   -1    9    4   -0.007458   -0.026676
    2    1   -1   10    4    0.049825    0.103853
    2    1   -1   11    4    0.026305   -0.020967
    2    1   -1   12    4   -0.083123   -0.005114
    2    1   -1   13    4   -0.031916    0.012951
    2    1   -1   14    4   -0.018701    0.006080
    2    1   -1   15    4    0.012812   -0.009822
    2    1   -1    1    5   -0.024468   -0.007111
    2    1   -1    2    5   -0.045416    0.002910
    2    1   -1    3    5   -0.007187   -0.005373
    2    1   -1    4    5   -0.021697   -0.005756
    2    1   -1    5    5   -0.050474    0.005854
    2    1   -1    6    5   -0.083580   -0.015418
    2    1   -1    7    5    0.010225   -0.012865
    2    1   -1    8    5    0.000500    0.012678
    2    1   -1    9    5   -0.029027   -0.007270
    2    1   -1   10    5   -0.189079   -0.001735
    2    1   -1   11    5    0.000195    0.090087
    2    1   -1   12    5   -0.006187    0.040741
    2    1   -1   13    5    0.011774   -0.004220
    2    1   -1   14    5    0.014379   -0.007162
    2    1   -1   15    5   -0.003995   -0.013706
    2    1   -1    1    6   -0.007480    0.041152
    2    1   -1    2    6    0.026331    0.022285
    2    1   -1    3    6   -0.024944    0.036468
    2    1   -1    4    6   -0.074690   -0.008555
    2    1   -1    5    6   -0.025286    0.033296
    2    1   -1    6    6   -0.543259    0.289719
    2    1   -1    7    6   -0.094168    0.105733
    2    1   -1    8    6    0.056788    0.531828
    2    1   -1    9    6   -0.318875   -0.209218
    2    1   -1   10    6    0.113093    0.027321
    2    1   -1   11    6    0.069924    0.248324
    2    1   -1   12    6    0.263552    0.113737
    2    1   -1   13    6   -0.077613    0.124223
    2    1   -1   14    6    0.127759    0.068906
    2    1   -1   15    6   -0.083839    0.043632
    2    1   -1    1    7    0.152170   -0.052120
    2    1   -1    2    7   -0.019684    0.075637
    2    1   -1    3    7   -0.179523    0.048482
    2    1   -1    4    7    0.048367    0.004665
    2    1   -1    5    7   -0.078171    0.116894
    2    1   -1    6    7    1.015717   -0.269458
    2    1   -1    7    7    0.836988   -0.544515
    2    1   -1    8    7   -0.160643   -0.126789
    2    1   -1    9    7   -0.393728   -0.041331
    2    1   -1   10    7    0.213066    0.001001
    2    1   -1   11    7    0.671358   -0.219753
    2    1   -1   12    7   -0.462080    0.425296
    2    1   -1   13    7    0.098222    0.086517
    2    1   -1   14    7   -0.456733   -0.011669
    2    1   -1   15    7   -0.124788    0.005812
    2    1   -1    1    8   -0.015199   -0.030881
    2    1   -1    2    8   -0.066502    0.035161
    2    1   -1    3    8   -0.092734   -0.032786
    2    1   -1    4    8   -0.035708   -0.040461
    2    1   -1    5    8   -0.125838    0.055857
    2    1   -1    6    8    0.187695   -0.417230
    2    1   -1    7    8    0.124290    0.222860
    2    1   -1    8    8   -0.483893   -0.223584
    2    1   -1    9    8   -0.260509    0.237932
    2    1   -1   10    8   -0.313863    0.001318
    2    1   -1   11    8    0.014604    0.024708
    2    1   -1   12    8   -0.147972    0.526899
    2    1   -1   13    8   -0.028053   -0.103365
    2    1   -1   14    8    0.122153    0.046139
    2    1   -1   15    8   -0.069656   -0.031318
    2    1   -1    1    9   -0.014479   -0.018169
    2    1   -1    2    9   -0.021087    0.003073
    2    1   -1    3    9   -0.023599   -0.007136
    2    1   -1    4    9   -0.051050    0.063252
    2    1   -1    5    9   -0.031167   -0.023921
    2    1   -1    6    9   -0.274021    0.100539
    2    1   -1    7    9   -0.267083   -0.008733
    2    1   -1    8    9    0.219779    0.138384
    2    1   -1    9    9   -0.112625   -0.003062
    2    1   -1   10    9    0.083415   -0.004167
    2    1   -1   11    9   -0.200781   -0.382957
    2    1   -1   12    9    0.133804   -0.239102
    2    1   -1   13    9    0.037899    0.024335
    2    1   -1   14    9    0.016374    0.008209
    2    1   -1   15    9   -0.026781    0.043342
    2    1   -1    1   10   -0.057359   -0.093045
    2    1   -1    2   10   -0.075244    0.020042
    2    1   -1    3   10    0.026185   -0.045102
    2    1   -1    4   10    0.019774   -0.061053
    2    1   -1    5   10   -0.006059   -0.032296
    2    1   -1    6   10   -0.600612   -0.111475
    2    1   -1    7   10   -0.590402    0.081853
    2    1   -1    8   10   -0.065044    0.196383
    2    1   -1    9   10    0.002779   -0.139790
    2    1   -1   10   10   -0.647182    0.030339
    2    1   -1   11   10    0.269275    0.250151
    2    1   -1   12   10   -0.382255   -0.078833
    2    1   -1   13   10   -0.125138   -0.058982
    2    1   -1   14   10    0.182408   -0.117300
    2    1   -1   15   10    0.050564   -0.037128
    2    1   -1    1   11    0.112989   -0.065845
    2    1   -1    2   11   -0.022822   -0.025685
    2    1   -1    3   11    0.030368    0.006163
    2    1   -1    4   11   -0.089089    0.109526
    2    1   -1    5   11   -0.013796   -0.025947
    2    1   -1    6   11    0.219036    0.486484
    2    1   -1    7   11   -0.157130    0.193679
    2    1   -1    8   11   -0.237937    0.181250
    2    1   -1    9   11    0.066113   -0.092804
    2    1   -1   10   11    0.484306    0.260922
    2    1   -1   11   11    0.578404    0.248197
    2    1   -1   12   11    0.099660   -0.060168
    2    1   -1   13   11   -0.012596    0.021382
    2    1   -1   14   11    0.000207    0.033172
    2    1   -1   15   11   -0.040646   -0.009743
    2    1   -1    1   12   -0.070465   -0.087406
    2    1   -1    2   12   -0.029451   -0.010936
    2    1   -1    3   12   -0.021523    0.031204
    2    1   -1    4   12    0.020792    0.072006
    2    1   -1    5   12   -0.049261   -0.031318
    2    1   -1    6   12   -0.148420   -0.491753
    2    1   -1    7   12   -0.374631   -0.217981
    2    1   -1    8   12    0.345099   -0.151194
    2    1   -1    9   12    0.139703   -0.037628
    2    1   -1   10   12   -0.146579    0.299566
    2    1   -1   11   12   -0.250982    0.010665
    2    1   -1   12   12    0.379635    0.165433
    2    1   -1   13   12    0.120286   -0.040739
    2    1   -1   14   12    0.115485    0.019962
    2    1   -1   15   12   -0.048470   -0.001770
    2    1   -1    1   13   -0.017425   -0.006925
    2    1   -1    2   13   -0.001158   -0.003175
    2    1   -1    3   13   -0.004796    0.009256
    2    1   -1    4   13    0.011574    0.003173
    2    1   -1    5   13   -0.039078    0.008220
    2    1   -1    6   13    0.033986   -0.053333
    2    1   -1    7   13    0.090445   -0.053361
    2    1   -1    8   13   -0.102580   -0.059146
    2    1   -1    9   13    0.106659    0.006321
    2    1   -1   10   13    0.046727    0.061621
    2    1   -1   11   13    0.176764   -0.202272
    2    1   -1   12   13   -0.066468    0.034481
    2    1   -1   13   13    0.001809    0.006973
    2    1   -1   14   13    0.000680   -0.001275
    2    1   -1   15   13   -0.004965    0.005700
    2    1   -1    1   14   -0.018840   -0.002861
    2    1   -1    2   14    0.014611    0.004726
    2    1   -1    3   14   -0.022168   -0.003695
    2    1   -1    4   14   -0.024197    0.005354
    2    1   -1    5   14   -0.013726   -0.003562
    2    1   -1    6   14    0.000602   -0.021746
    2    1   -1    7   14   -0.014009   -0.005935
    2    1   -1    8   14   -0.054322    0.005058
    2    1   -1    9   14   -0.036593   -0.086016
    2    1   -1   10   14    0.081157    0.048654
    2    1   -1   11   14   -0.107432   -0.125571
    2    1   -1   12   14    0.081871   -0.006126
    2    1   -1   13   14    0.001678    0.005764
    2    1   -1   14   14   -0.004262   -0.002515
    2    1   -1   15   14   -0.001077   -0.001170
    2    1   -1    1   15   -0.011129   -0.005585
    2    1   -1    2   15   -0.013818    0.000159
    2    1   -1    3   15   -0.022644   -0.002070
    2    1   -1    4   15   -0.012620   -0.010643
    2    1   -1    5   15   -0.022106    0.003212
    2    1   -1    6   15   -0.139294    0.025289
    2    1   -1    7   15    0.106331    0.072433
    2    1   -1    8   15    0.025740   -0.071119
    2    1   -1    9   15   -0.050513   -0.008673
    2    1   -1   10   15   -0.082405    0.022243
    2    1   -1   11   15    0.199201    0.004064
    2    1   -1   12   15    0.063725    0.034913
    2    1   -1   13   15   -0.000289   -0.000371
    2    1   -1   14   15   -0.001348    0.000066
    2    1   -1   15   15   -0.001551    0.000209
    2    2   -2    1    1   -0.090251   -0.000000
    2    2   -2    2    1   -0.025172   -0.008369
    2    2   -2    3    1    0.000394   -0.000970
    2    2   -2    4    1    0.012557   -0.002164
    2    2   -2    5    1   -0.009260    0.009885
    2    2   -2    6    1   -0.047861   -0.090132
    2    2   -2    7    1    0.118476    0.043068
    2    2   -2    8    1   -0.015648   -0.092821
    2    2   -2    9    1   -0.022676    0.059063
    2    2   -2   10    1    0.003590   -0.103476
    2    2   -2   11    1    0.109706   -0.050737
    2    2   -2   12    1    0.021728    0.009821
    2    2   -2   13    1    0.031913    0.009636
    2    2   -2   14    1   -0.002863   -0.000715
    2    2   -2   15    1   -0.017633   -0.002714
    2    2   -2    1    2   -0.025172    0.008369
    2    2   -2    2    2    0.001297   -0.000000
    2    2   -2    3    2   -0.004925    0.002655
    2    2   -2    4    2   -0.024035   -0.007606
    2    2   -2    5    2   -0.026284   -0.000207
    2    2   -2    6    2   -0.051477    0.041405
    2    2   -2    7    2   -0.005347   -0.072302
    2    2   -2    8    2    0.148565   -0.013057
    2    2   -2    9    2   -0.036485    0.028193
    2    2   -2   10    2   -0.109577    0.000649
    2    2   -2   11    2    0.013431    0.035491
    2    2   -2   12    2    0.009132    0.006812
    2    2   -2   13    2    0.005254   -0.007222
    2    2   -2   14    2   -0.014812   -0.012850
    2    2   -2   15    2   -0.004309    0.004499
    2    2   -2    1    3    0.000394    0.000970
    2    2   -2    2    3   -0.004925   -0.002655
    2    2   -2    3    3   -0.001469    0.000000
    2    2   -2    4    3   -0.028304    0.012511
    2    2   -2    5    3    0.015422   -0.004000
    2    2   -2    6    3   -0.015398   -0.087059
    2    2   -2    7    3   -0.012278    0.080741
    2    2   -2    8    3    0.025352    0.042257
    2    2   -2    9    3   -0.003754    0.014905
    2    2   -2   10    3   -0.024526   -0.071466
    2    2   -2   11    3   -0.086276   -0.075993
    2    2   -2   12    3    0.022812   -0.016256
    2    2   -2   13    3    0.006170   -0.000864
    2    2   -2   14    3   -0.003612   -0.005196
    2    2   -2   15    3   -0.002872   -0.007947
    2    2   -2    1    4    0.012557    0.002164
    2    2   -2    2    4   -0.024035    0.007606
    2    2   -2    3    4   -0.028304   -0.012511
    2    2   -2    4    4    0.001863   -0.000000
    2    2   -2    5    4   -0.019567    0.000633
    2    2   -2    6    4    0.007354   -0.012748
    2    2   -2    7    4    0.118279    0.038579
    2    2   -2    8    4    0.009027    0.013132
    2    2   -2    9    4    0.045559    0.016514
    2    2   -2   10    4   -0.052194   -0.008431
    2    2   -2   11    4   -0.183441   -0.055768
    2    2   -2   12    4   -0.050350    0.026106
    2    2   -2   13    4   -0.000741   -0.005578
    2    2   -2   14    4   -0.010036   -0.000501
    2    2   -2   15    4    0.005169   -0.011313
    2    2   -2    1    5   -0.009260   -0.009885
    2    2   -2    2    5   -0.026284    0.000207
    2    2   -2    3    5    0.015422    0.004000
    2    2   -2    4    5   -0.019567   -0.000633
    2    2   -2    5    5   -0.018551    0.000000
    2    2   -2    6    5    0.030828    0.022477
    2    2   -2    7    5   -0.111799   -0.028323
    2    2   -2    8    5    0.094156    0.007548
    2    2   -2    9    5   -0.013463    0.000485
    2    2   -2   10    5   -0.020568    0.004197
    2    2   -2   11    5    0.037969    0.041986
    2    2   -2   12    5    0.011078   -0.045381
    2    2   -2   13    5    0.002353    0.001694
    2    2   -2   14    5   -0.018248   -0.001941
    2    2   -2   15    5    0.003520    0.001788
    2    2   -2    1    6   -0.047861    0.090132
    2    2   -2    2    6   -0.051477   -0.041405
    2    2   -2    3    6   -0.015398    0.087059
    2    2   -2    4    6    0.007354    0.012748
    2    2   -2    5    6    0.030828   -0.022477
    2    2   -2    6    6   -0.423147   -0.000000
    2    2   -2    7    6    0.759821   -0.064508
    2    2   -2    8    6    0.314081   -0.366536
    2    2   -2    9    6    0.112310    0.133709
    2    2   -2   10    6   -0.287768   -0.196997
    2    2   -2   11    6    0.306806   -0.123278
    2    2   -2   12    6    0.458135    0.323122
    2    2   -2   13    6    0.028797    0.002358
    2    2   -2   14    6    0.097726   -0.028038
    2    2   -2   15    6    0.005245   -0.011801
    2    2   -2    1    7    0.118476   -0.043068
    2    2   -2    2    7   -0.005347    0.072302
    2    2   -2    3    7   -0.012278   -0.080741
    2    2   -2    4    7    0.118279   -0.038579
    2    2   -2    5    7   -0.111799    0.028323
    2    2   -2    6    7    0.759821    0.064508
    2    2   -2    7    7    0.152014   -0.000000
    2    2   -2    8    7    0.013762   -0.409555
    2    2   -2    9    7   -0.108825    0.119459
    2    2   -2   10    7    0.040276    0.266157
    2    2   -2   11    7   -0.330847   -0.253152
    2    2   -2   12    7   -0.315408    0.205802
    2    2   -2   13    7   -0.106077    0.045061
    2    2   -2   14    7   -0.013779    0.051715
    2    2   -2   15    7    0.104855    0.014452
    2    2   -2    1    8   -0.015648    0.092821
    2    2   -2    2    8    0.148565    0.013057
    2    2   -2    3    8    0.025352   -0.042257
    2    2   -2    4    8    0.009027   -0.013132
    2    2   -2    5    8    0.094156   -0.007548
    2    2   -2    6    8    0.314081    0.366536
    2    2   -2    7    8    0.013762    0.409555
    2    2   -2    8    8    0.939457    0.000000
    2    2   -2    9    8    0.161837   -0.025127
    2    2   -2   10    8    0.391045    0.038040
    2    2   -2   11    8    0.206796   -0.100586
    2    2   -2   12    8    0.210750   -0.158651
    2    2   -2   13    8   -0.065717    0.007347
    2    2   -2   14    8   -0.029503   -0.034525
    2    2   -2   15    8    0.088182   -0.009588
    2    2   -2    1    9   -0.022676   -0.059063
    2    2   -2    2    9   -0.036485   -0.028193
    2    2   -2    3    9   -0.003754   -0.014905
    2    2   -2    4    9    0.045559   -0.016514
    2    2   -2    5    9   -0.013463   -0.000485
    2    2   -2    6    9    0.112310   -0.133709
    2    2   -2    7    9   -0.108825   -0.119459
    2    2   -2    8    9    0.161837    0.025127
    2    2   -2    9    9    0.070114    0.000000
    2    2   -2   10    9    0.114303   -0.235161
    2    2   -2   11    9   -0.089045   -0.092462
    2    2   -2   12    9    0.129009   -0.166266
    2    2   -2   13    9   -0.043262    0.022573
    2    2   -2   14    9   -0.058875   -0.005504
    2    2   -2   15    9   -0.011198   -0.036645
    2    2   -2    1   10    0.003590    0.103476
    2    2   -2    2   10   -0.109577   -0.000649
    2    2   -2    3   10   -0.024526    0.071466
    2    2   -2    4   10   -0.052194    0.008431
    2    2   -2    5   10   -0.020568   -0.004197
    2    2   -2    6   10   -0.287768    0.196997
    2    2   -2    7   10    0.040276   -0.266157
    2    2   -2    8   10    0.391045   -0.038040
    2    2   -2    9   10    0.114303    0.235161
    2    2   -2   10   10   -0.127856   -0.000000
    2    2   -2   11   10    0.177761    0.207719
    2    2   -2   12   10   -0.199010   -0.075384
    2    2   -2   13   10    0.052082   -0.017565
    2    2   -2   14   10    0.040970   -0.048210
    2    2   -2   15   10   -0.047237   -0.025815
    2    2   -2    1   11    0.109706    0.050737
    2    2   -2    2   11    0.013431   -0.035491
    2    2   -2    3   11   -0.086276    0.075993
    2    2   -2    4   11   -0.183441    0.055768
    2    2   -2    5   11    0.037969   -0.041986
    2    2   -2    6   11    0.306806    0.123278
    2    2   -2    7   11   -0.330847    0.253152
    2    2   -2    8   11    0.206796    0.100586
    2    2   -2    9   11   -0.089045    0.092462
    2    2   -2   10   11    0.177761   -0.207719
    2    2   -2   11   11   -0.198812   -0.000000
    2    2   -2   12   11    0.233769   -0.435449
    2    2   -2   13   11   -0.086201   -0.024085
    2    2   -2   14   11    0.037844    0.026922
    2    2   -2   15   11   -0.005979   -0.032638
    2    2   -2    1   12    0.021728   -0.009821
    2    2   -2    2   12    0.009132   -0.006812
    2    2   -2    3   12    0.022812    0.016256
    2    2   -2    4   12   -0.050350   -0.026106
    2    2   -2    5   12    0.011078    0.045381
    2    2   -2    6   12    0.458135   -0.323122
    2    2   -2    7   12   -0.315408   -0.205802
    2    2   -2    8   12    0.210750    0.158651
    2    2   -2    9   12    0.129009    0.166266
    2    2   -2   10   12   -0.199010    0.075384
    2    2   -2   11   12    0.233769    0.435449
    2    2   -2   12   12    0.087198    0.000000
    2    2   -2   13   12   -0.051907   -0.014131
    2    2   -2   14   12   -0.030166   -0.020827
    2    2   -2   15   12   -0.034218    0.000855
    2    2   -2    1   13    0.031913   -0.009636
    2    2   -2    2   13    0.005254    0.007222
    2    2   -2    3   13    0.006170    0.000864
    2    2   -2    4   13   -0.000741    0.005578
    2    2   -2    5   13    0.002353   -0.001694
    2    2   -2    6   13    0.028797   -0.002358
    2    2   -2    7   13   -0.106077   -0.045061
    2    2   -2    8   13   -0.065717   -0.007347
    2    2   -2    9   13   -0.043262   -0.022573
    2    2   -2   10   13    0.052082    0.017565
    2    2   -2   11   13   -0.086201    0.024085
    2    2   -2   12   13   -0.051907    0.014131
    2    2   -2   13   13   -0.000875    0.000000
    2    2   -2   14   13    0.001052    0.000106
    2    2   -2   15   13    0.001932   -0.000390
    2    2   -2    1   14   -0.002863    0.000715
    2    2   -2    2   14   -0.014812    0.012850
    2    2   -2    3   14   -0.003612    0.005196
    2    2   -2    4   14   -0.010036    0.000501
    2    2   -2    5   14   -0.018248    0.001941
    2    2   -2    6   14    0.097726    0.028038
    2    2   -2    7   14   -0.013779   -0.051715
    2    2   -2    8   14   -0.029503    0.034525
    2    2   -2    9   14   -0.058875    0.005504
    2    2   -2   10   14    0.040970    0.048210
    2    2   -2   11   14    0.037844   -0.026922
    2    2   -2   12   14   -0.030166    0.020827
    2    2   -2   13   14    0.001052   -0.000106
    2    2   -2   14   14    0.001657   -0.000000
    2    2   -2   15   14    0.000355    0.002587
    2    2   -2    1   15   -0.017633    0.002714
    2    2   -2    2   15   -0.004309   -0.004499
    2    2   -2    3   15   -0.002872    0.007947
    2    2   -2    4   15    0.005169    0.011313
    2    2   -2    5   15    0.003520   -0.001788
    2    2   -2    6   15    0.005245    0.011801
    2    2   -2    7   15    0.104855   -0.014452
    2    2   -2    8   15    0.088182    0.009588
    2    2   -2    9   15   -0.011198    0.036645
    2    2   -2   10   15   -0.047237    0.025815
    2    2   -2   11   15   -0.005979    0.032638
    2    2   -2   12   15   -0.034218   -0.000855
    2    2   -2   13   15    0.001932    0.000390
    2    2   -2   14   15    0.000355   -0.002587
    2    2   -2   15   15    0.003341    0.000000
